12.3654374516507417 0.0000000000000000 0.0000000000000000 0.0000000000000000 12.3654374516507417 0.0000000000000000 0.0000000000000000 0.0000000000000000 12.3654374516507417
12.1338323077800219 0.0000000000000000 0.0000000000000000 0.0000000000000000 12.1338323077800219 0.0000000000000000 0.0000000000000000 0.0000000000000000 12.1338323077800219
12.2984992093325989 0.0000000000000000 0.0000000000000000 0.0000000000000000 12.2984992093325989 0.0000000000000000 0.0000000000000000 0.0000000000000000 12.2984992093325989
12.0531669229637881 0.0000000000000000 0.0000000000000000 0.0000000000000000 12.0531669229637881 0.0000000000000000 0.0000000000000000 0.0000000000000000 12.0531669229637881
12.4883529625873866 0.0000000000000000 0.0000000000000000 0.0000000000000000 12.4883529625873866 0.0000000000000000 0.0000000000000000 0.0000000000000000 12.4883529625873866
12.4611822871751698 0.0000000000000000 0.0000000000000000 0.0000000000000000 12.4611822871751698 0.0000000000000000 0.0000000000000000 0.0000000000000000 12.4611822871751698
12.2518124408870008 0.0000000000000000 0.0000000000000000 0.0000000000000000 12.2518124408870008 0.0000000000000000 0.0000000000000000 0.0000000000000000 12.2518124408870008
12.3311604186995840 0.0000000000000000 0.0000000000000000 0.0000000000000000 12.3311604186995840 0.0000000000000000 0.0000000000000000 0.0000000000000000 12.3311604186995840
12.2733206977365636 0.0000000000000000 0.0000000000000000 0.0000000000000000 12.2733206977365636 0.0000000000000000 0.0000000000000000 0.0000000000000000 12.2733206977365636
12.2612765397782422 0.0000000000000000 0.0000000000000000 0.0000000000000000 12.2612765397782422 0.0000000000000000 0.0000000000000000 0.0000000000000000 12.2612765397782422
12.3004159614965030 0.0000000000000000 0.0000000000000000 0.0000000000000000 12.3004159614965030 0.0000000000000000 0.0000000000000000 0.0000000000000000 12.3004159614965030
12.1873964153726302 0.0000000000000000 0.0000000000000000 0.0000000000000000 12.1873964153726302 0.0000000000000000 0.0000000000000000 0.0000000000000000 12.1873964153726302
12.2495747967700002 0.0000000000000000 0.0000000000000000 0.0000000000000000 12.2495747967700002 0.0000000000000000 0.0000000000000000 0.0000000000000000 12.2495747967700002
12.1146563155196105 0.0000000000000000 0.0000000000000000 0.0000000000000000 12.1146563155196105 0.0000000000000000 0.0000000000000000 0.0000000000000000 12.1146563155196105
12.1777240352038465 0.0000000000000000 0.0000000000000000 0.0000000000000000 12.1777240352038465 0.0000000000000000 0.0000000000000000 0.0000000000000000 12.1777240352038465
12.2692609222979581 0.0000000000000000 0.0000000000000000 0.0000000000000000 12.2692609222979581 0.0000000000000000 0.0000000000000000 0.0000000000000000 12.2692609222979581
12.0134385641522297 0.0000000000000000 0.0000000000000000 0.0000000000000000 12.0134385641522297 0.0000000000000000 0.0000000000000000 0.0000000000000000 12.0134385641522297
12.0080024925847351 0.0000000000000000 0.0000000000000000 0.0000000000000000 12.0080024925847351 0.0000000000000000 0.0000000000000000 0.0000000000000000 12.0080024925847351
12.1340985048209138 0.0000000000000000 0.0000000000000000 0.0000000000000000 12.1340985048209138 0.0000000000000000 0.0000000000000000 0.0000000000000000 12.1340985048209138
12.2467085848600767 0.0000000000000000 0.0000000000000000 0.0000000000000000 12.2467085848600767 0.0000000000000000 0.0000000000000000 0.0000000000000000 12.2467085848600767
12.3834025485295438 0.0000000000000000 0.0000000000000000 0.0000000000000000 12.3834025485295438 0.0000000000000000 0.0000000000000000 0.0000000000000000 12.3834025485295438
12.1567446799218146 0.0000000000000000 0.0000000000000000 0.0000000000000000 12.1567446799218146 0.0000000000000000 0.0000000000000000 0.0000000000000000 12.1567446799218146
12.2462005715218698 0.0000000000000000 0.0000000000000000 0.0000000000000000 12.2462005715218698 0.0000000000000000 0.0000000000000000 0.0000000000000000 12.2462005715218698
12.2637593172131059 0.0000000000000000 0.0000000000000000 0.0000000000000000 12.2637593172131059 0.0000000000000000 0.0000000000000000 0.0000000000000000 12.2637593172131059
12.2976393209363017 0.0000000000000000 0.0000000000000000 0.0000000000000000 12.2976393209363017 0.0000000000000000 0.0000000000000000 0.0000000000000000 12.2976393209363017
12.1075019425207184 0.0000000000000000 0.0000000000000000 0.0000000000000000 12.1075019425207184 0.0000000000000000 0.0000000000000000 0.0000000000000000 12.1075019425207184
12.0884328659548892 0.0000000000000000 0.0000000000000000 0.0000000000000000 12.0884328659548892 0.0000000000000000 0.0000000000000000 0.0000000000000000 12.0884328659548892
12.1533726379401141 0.0000000000000000 0.0000000000000000 0.0000000000000000 12.1533726379401141 0.0000000000000000 0.0000000000000000 0.0000000000000000 12.1533726379401141
12.2044399944913238 0.0000000000000000 0.0000000000000000 0.0000000000000000 12.2044399944913238 0.0000000000000000 0.0000000000000000 0.0000000000000000 12.2044399944913238
12.3034544343196561 0.0000000000000000 0.0000000000000000 0.0000000000000000 12.3034544343196561 0.0000000000000000 0.0000000000000000 0.0000000000000000 12.3034544343196561
12.2056724990952112 0.0000000000000000 0.0000000000000000 0.0000000000000000 12.2056724990952112 0.0000000000000000 0.0000000000000000 0.0000000000000000 12.2056724990952112
12.3881424156281206 0.0000000000000000 0.0000000000000000 0.0000000000000000 12.3881424156281206 0.0000000000000000 0.0000000000000000 0.0000000000000000 12.3881424156281206
12.3067183522417185 0.0000000000000000 0.0000000000000000 0.0000000000000000 12.3067183522417185 0.0000000000000000 0.0000000000000000 0.0000000000000000 12.3067183522417185
12.3814220963479436 0.0000000000000000 0.0000000000000000 0.0000000000000000 12.3814220963479436 0.0000000000000000 0.0000000000000000 0.0000000000000000 12.3814220963479436
12.4297728609204228 0.0000000000000000 0.0000000000000000 0.0000000000000000 12.4297728609204228 0.0000000000000000 0.0000000000000000 0.0000000000000000 12.4297728609204228
12.2479536212323090 0.0000000000000000 0.0000000000000000 0.0000000000000000 12.2479536212323090 0.0000000000000000 0.0000000000000000 0.0000000000000000 12.2479536212323090
12.3090372751181558 0.0000000000000000 0.0000000000000000 0.0000000000000000 12.3090372751181558 0.0000000000000000 0.0000000000000000 0.0000000000000000 12.3090372751181558
12.3983342534679473 0.0000000000000000 0.0000000000000000 0.0000000000000000 12.3983342534679473 0.0000000000000000 0.0000000000000000 0.0000000000000000 12.3983342534679473
12.2685205924960474 0.0000000000000000 0.0000000000000000 0.0000000000000000 12.2685205924960474 0.0000000000000000 0.0000000000000000 0.0000000000000000 12.2685205924960474
12.3297247271917438 0.0000000000000000 0.0000000000000000 0.0000000000000000 12.3297247271917438 0.0000000000000000 0.0000000000000000 0.0000000000000000 12.3297247271917438
12.3657538333664938 0.0000000000000000 0.0000000000000000 0.0000000000000000 12.3657538333664938 0.0000000000000000 0.0000000000000000 0.0000000000000000 12.3657538333664938
12.4108869844518743 0.0000000000000000 0.0000000000000000 0.0000000000000000 12.4108869844518743 0.0000000000000000 0.0000000000000000 0.0000000000000000 12.4108869844518743
12.4040384950183054 0.0000000000000000 0.0000000000000000 0.0000000000000000 12.4040384950183054 0.0000000000000000 0.0000000000000000 0.0000000000000000 12.4040384950183054
12.3003212914137610 0.0000000000000000 0.0000000000000000 0.0000000000000000 12.3003212914137610 0.0000000000000000 0.0000000000000000 0.0000000000000000 12.3003212914137610
12.2978486548002532 0.0000000000000000 0.0000000000000000 0.0000000000000000 12.2978486548002532 0.0000000000000000 0.0000000000000000 0.0000000000000000 12.2978486548002532
12.1653096264057581 0.0000000000000000 0.0000000000000000 0.0000000000000000 12.1653096264057581 0.0000000000000000 0.0000000000000000 0.0000000000000000 12.1653096264057581
12.1816637820658560 0.0000000000000000 0.0000000000000000 0.0000000000000000 12.1816637820658560 0.0000000000000000 0.0000000000000000 0.0000000000000000 12.1816637820658560
12.3115312456576103 0.0000000000000000 0.0000000000000000 0.0000000000000000 12.3115312456576103 0.0000000000000000 0.0000000000000000 0.0000000000000000 12.3115312456576103
12.2903715354352023 0.0000000000000000 0.0000000000000000 0.0000000000000000 12.2903715354352023 0.0000000000000000 0.0000000000000000 0.0000000000000000 12.2903715354352023
12.1170266768258568 0.0000000000000000 0.0000000000000000 0.0000000000000000 12.1170266768258568 0.0000000000000000 0.0000000000000000 0.0000000000000000 12.1170266768258568
12.2365139926377449 0.0000000000000000 0.0000000000000000 0.0000000000000000 12.2365139926377449 0.0000000000000000 0.0000000000000000 0.0000000000000000 12.2365139926377449
12.2812822899195950 0.0000000000000000 0.0000000000000000 0.0000000000000000 12.2812822899195950 0.0000000000000000 0.0000000000000000 0.0000000000000000 12.2812822899195950
12.0733899423543605 0.0000000000000000 0.0000000000000000 0.0000000000000000 12.0733899423543605 0.0000000000000000 0.0000000000000000 0.0000000000000000 12.0733899423543605
12.2929020631045063 0.0000000000000000 0.0000000000000000 0.0000000000000000 12.2929020631045063 0.0000000000000000 0.0000000000000000 0.0000000000000000 12.2929020631045063
12.2139783598616081 0.0000000000000000 0.0000000000000000 0.0000000000000000 12.2139783598616081 0.0000000000000000 0.0000000000000000 0.0000000000000000 12.2139783598616081
12.2811735394786012 0.0000000000000000 0.0000000000000000 0.0000000000000000 12.2811735394786012 0.0000000000000000 0.0000000000000000 0.0000000000000000 12.2811735394786012
12.2850981172119660 0.0000000000000000 0.0000000000000000 0.0000000000000000 12.2850981172119660 0.0000000000000000 0.0000000000000000 0.0000000000000000 12.2850981172119660
12.3642713604396803 0.0000000000000000 0.0000000000000000 0.0000000000000000 12.3642713604396803 0.0000000000000000 0.0000000000000000 0.0000000000000000 12.3642713604396803
12.1774693138763421 0.0000000000000000 0.0000000000000000 0.0000000000000000 12.1774693138763421 0.0000000000000000 0.0000000000000000 0.0000000000000000 12.1774693138763421
12.2287611414875492 0.0000000000000000 0.0000000000000000 0.0000000000000000 12.2287611414875492 0.0000000000000000 0.0000000000000000 0.0000000000000000 12.2287611414875492
12.1655722791763168 0.0000000000000000 0.0000000000000000 0.0000000000000000 12.1655722791763168 0.0000000000000000 0.0000000000000000 0.0000000000000000 12.1655722791763168
12.1744140148253575 0.0000000000000000 0.0000000000000000 0.0000000000000000 12.1744140148253575 0.0000000000000000 0.0000000000000000 0.0000000000000000 12.1744140148253575
12.3487990606146063 0.0000000000000000 0.0000000000000000 0.0000000000000000 12.3487990606146063 0.0000000000000000 0.0000000000000000 0.0000000000000000 12.3487990606146063
12.3994188367615603 0.0000000000000000 0.0000000000000000 0.0000000000000000 12.3994188367615603 0.0000000000000000 0.0000000000000000 0.0000000000000000 12.3994188367615603
12.3551449991601245 0.0000000000000000 0.0000000000000000 0.0000000000000000 12.3551449991601245 0.0000000000000000 0.0000000000000000 0.0000000000000000 12.3551449991601245
12.3494755062950574 0.0000000000000000 0.0000000000000000 0.0000000000000000 12.3494755062950574 0.0000000000000000 0.0000000000000000 0.0000000000000000 12.3494755062950574
12.4485372544337913 0.0000000000000000 0.0000000000000000 0.0000000000000000 12.4485372544337913 0.0000000000000000 0.0000000000000000 0.0000000000000000 12.4485372544337913
12.2656744217728200 0.0000000000000000 0.0000000000000000 0.0000000000000000 12.2656744217728200 0.0000000000000000 0.0000000000000000 0.0000000000000000 12.2656744217728200
12.3310833377408908 0.0000000000000000 0.0000000000000000 0.0000000000000000 12.3310833377408908 0.0000000000000000 0.0000000000000000 0.0000000000000000 12.3310833377408908
12.4062251605606928 0.0000000000000000 0.0000000000000000 0.0000000000000000 12.4062251605606928 0.0000000000000000 0.0000000000000000 0.0000000000000000 12.4062251605606928
12.2664238922489837 0.0000000000000000 0.0000000000000000 0.0000000000000000 12.2664238922489837 0.0000000000000000 0.0000000000000000 0.0000000000000000 12.2664238922489837
12.1886820200665600 0.0000000000000000 0.0000000000000000 0.0000000000000000 12.1886820200665600 0.0000000000000000 0.0000000000000000 0.0000000000000000 12.1886820200665600
12.1195926714091016 0.0000000000000000 0.0000000000000000 0.0000000000000000 12.1195926714091016 0.0000000000000000 0.0000000000000000 0.0000000000000000 12.1195926714091016
12.3611575298015026 0.0000000000000000 0.0000000000000000 0.0000000000000000 12.3611575298015026 0.0000000000000000 0.0000000000000000 0.0000000000000000 12.3611575298015026
12.3133158819202642 0.0000000000000000 0.0000000000000000 0.0000000000000000 12.3133158819202642 0.0000000000000000 0.0000000000000000 0.0000000000000000 12.3133158819202642
12.3996724708422246 0.0000000000000000 0.0000000000000000 0.0000000000000000 12.3996724708422246 0.0000000000000000 0.0000000000000000 0.0000000000000000 12.3996724708422246
12.3517126515326652 0.0000000000000000 0.0000000000000000 0.0000000000000000 12.3517126515326652 0.0000000000000000 0.0000000000000000 0.0000000000000000 12.3517126515326652
12.2870724675773761 0.0000000000000000 0.0000000000000000 0.0000000000000000 12.2870724675773761 0.0000000000000000 0.0000000000000000 0.0000000000000000 12.2870724675773761
12.3773033822864917 0.0000000000000000 0.0000000000000000 0.0000000000000000 12.3773033822864917 0.0000000000000000 0.0000000000000000 0.0000000000000000 12.3773033822864917
12.2045303872209416 0.0000000000000000 0.0000000000000000 0.0000000000000000 12.2045303872209416 0.0000000000000000 0.0000000000000000 0.0000000000000000 12.2045303872209416
12.1925170242535224 0.0000000000000000 0.0000000000000000 0.0000000000000000 12.1925170242535224 0.0000000000000000 0.0000000000000000 0.0000000000000000 12.1925170242535224
12.3827895381057260 0.0000000000000000 0.0000000000000000 0.0000000000000000 12.3827895381057260 0.0000000000000000 0.0000000000000000 0.0000000000000000 12.3827895381057260
12.2806988402500146 0.0000000000000000 0.0000000000000000 0.0000000000000000 12.2806988402500146 0.0000000000000000 0.0000000000000000 0.0000000000000000 12.2806988402500146
12.1158796745898343 0.0000000000000000 0.0000000000000000 0.0000000000000000 12.1158796745898343 0.0000000000000000 0.0000000000000000 0.0000000000000000 12.1158796745898343
12.2447931918569370 0.0000000000000000 0.0000000000000000 0.0000000000000000 12.2447931918569370 0.0000000000000000 0.0000000000000000 0.0000000000000000 12.2447931918569370
12.2427886573657982 0.0000000000000000 0.0000000000000000 0.0000000000000000 12.2427886573657982 0.0000000000000000 0.0000000000000000 0.0000000000000000 12.2427886573657982
12.0818079689542230 0.0000000000000000 0.0000000000000000 0.0000000000000000 12.0818079689542230 0.0000000000000000 0.0000000000000000 0.0000000000000000 12.0818079689542230
12.0689469627780266 0.0000000000000000 0.0000000000000000 0.0000000000000000 12.0689469627780266 0.0000000000000000 0.0000000000000000 0.0000000000000000 12.0689469627780266
12.1883131945333876 0.0000000000000000 0.0000000000000000 0.0000000000000000 12.1883131945333876 0.0000000000000000 0.0000000000000000 0.0000000000000000 12.1883131945333876
11.9730103232544209 0.0000000000000000 0.0000000000000000 0.0000000000000000 11.9730103232544209 0.0000000000000000 0.0000000000000000 0.0000000000000000 11.9730103232544209
11.9145407468442794 0.0000000000000000 0.0000000000000000 0.0000000000000000 11.9145407468442794 0.0000000000000000 0.0000000000000000 0.0000000000000000 11.9145407468442794
12.1132708717437740 0.0000000000000000 0.0000000000000000 0.0000000000000000 12.1132708717437740 0.0000000000000000 0.0000000000000000 0.0000000000000000 12.1132708717437740
12.3239106882237870 0.0000000000000000 0.0000000000000000 0.0000000000000000 12.3239106882237870 0.0000000000000000 0.0000000000000000 0.0000000000000000 12.3239106882237870
12.3816683850348159 0.0000000000000000 0.0000000000000000 0.0000000000000000 12.3816683850348159 0.0000000000000000 0.0000000000000000 0.0000000000000000 12.3816683850348159
12.1597033729308279 0.0000000000000000 0.0000000000000000 0.0000000000000000 12.1597033729308279 0.0000000000000000 0.0000000000000000 0.0000000000000000 12.1597033729308279
12.2161239529699888 0.0000000000000000 0.0000000000000000 0.0000000000000000 12.2161239529699888 0.0000000000000000 0.0000000000000000 0.0000000000000000 12.2161239529699888
12.0480090908203739 0.0000000000000000 0.0000000000000000 0.0000000000000000 12.0480090908203739 0.0000000000000000 0.0000000000000000 0.0000000000000000 12.0480090908203739
12.0426188756081824 0.0000000000000000 0.0000000000000000 0.0000000000000000 12.0426188756081824 0.0000000000000000 0.0000000000000000 0.0000000000000000 12.0426188756081824
12.3464524538216480 0.0000000000000000 0.0000000000000000 0.0000000000000000 12.3464524538216480 0.0000000000000000 0.0000000000000000 0.0000000000000000 12.3464524538216480
12.3101451276106193 0.0000000000000000 0.0000000000000000 0.0000000000000000 12.3101451276106193 0.0000000000000000 0.0000000000000000 0.0000000000000000 12.3101451276106193
12.3863033857674019 0.0000000000000000 0.0000000000000000 0.0000000000000000 12.3863033857674019 0.0000000000000000 0.0000000000000000 0.0000000000000000 12.3863033857674019
12.3013173208690727 0.0000000000000000 0.0000000000000000 0.0000000000000000 12.3013173208690727 0.0000000000000000 0.0000000000000000 0.0000000000000000 12.3013173208690727
12.4398136628363876 0.0000000000000000 0.0000000000000000 0.0000000000000000 12.4398136628363876 0.0000000000000000 0.0000000000000000 0.0000000000000000 12.4398136628363876
12.2980949588335395 0.0000000000000000 0.0000000000000000 0.0000000000000000 12.2980949588335395 0.0000000000000000 0.0000000000000000 0.0000000000000000 12.2980949588335395
12.2447828136526784 0.0000000000000000 0.0000000000000000 0.0000000000000000 12.2447828136526784 0.0000000000000000 0.0000000000000000 0.0000000000000000 12.2447828136526784
12.2470809817917914 0.0000000000000000 0.0000000000000000 0.0000000000000000 12.2470809817917914 0.0000000000000000 0.0000000000000000 0.0000000000000000 12.2470809817917914
12.1381100382556575 0.0000000000000000 0.0000000000000000 0.0000000000000000 12.1381100382556575 0.0000000000000000 0.0000000000000000 0.0000000000000000 12.1381100382556575
12.3166205280308105 0.0000000000000000 0.0000000000000000 0.0000000000000000 12.3166205280308105 0.0000000000000000 0.0000000000000000 0.0000000000000000 12.3166205280308105
12.2876462628995355 0.0000000000000000 0.0000000000000000 0.0000000000000000 12.2876462628995355 0.0000000000000000 0.0000000000000000 0.0000000000000000 12.2876462628995355
12.4296099691949191 0.0000000000000000 0.0000000000000000 0.0000000000000000 12.4296099691949191 0.0000000000000000 0.0000000000000000 0.0000000000000000 12.4296099691949191
12.2745964495792084 0.0000000000000000 0.0000000000000000 0.0000000000000000 12.2745964495792084 0.0000000000000000 0.0000000000000000 0.0000000000000000 12.2745964495792084
12.2658801276555725 0.0000000000000000 0.0000000000000000 0.0000000000000000 12.2658801276555725 0.0000000000000000 0.0000000000000000 0.0000000000000000 12.2658801276555725
12.2506557115072514 0.0000000000000000 0.0000000000000000 0.0000000000000000 12.2506557115072514 0.0000000000000000 0.0000000000000000 0.0000000000000000 12.2506557115072514
12.1556630913029213 0.0000000000000000 0.0000000000000000 0.0000000000000000 12.1556630913029213 0.0000000000000000 0.0000000000000000 0.0000000000000000 12.1556630913029213
12.0055815810090056 0.0000000000000000 0.0000000000000000 0.0000000000000000 12.0055815810090056 0.0000000000000000 0.0000000000000000 0.0000000000000000 12.0055815810090056
12.1316772432012687 0.0000000000000000 0.0000000000000000 0.0000000000000000 12.1316772432012687 0.0000000000000000 0.0000000000000000 0.0000000000000000 12.1316772432012687
12.1253583139152425 0.0000000000000000 0.0000000000000000 0.0000000000000000 12.1253583139152425 0.0000000000000000 0.0000000000000000 0.0000000000000000 12.1253583139152425
12.2036309974090216 0.0000000000000000 0.0000000000000000 0.0000000000000000 12.2036309974090216 0.0000000000000000 0.0000000000000000 0.0000000000000000 12.2036309974090216
12.1634579934392093 0.0000000000000000 0.0000000000000000 0.0000000000000000 12.1634579934392093 0.0000000000000000 0.0000000000000000 0.0000000000000000 12.1634579934392093
12.2610610045905393 0.0000000000000000 0.0000000000000000 0.0000000000000000 12.2610610045905393 0.0000000000000000 0.0000000000000000 0.0000000000000000 12.2610610045905393
12.2370942492416344 0.0000000000000000 0.0000000000000000 0.0000000000000000 12.2370942492416344 0.0000000000000000 0.0000000000000000 0.0000000000000000 12.2370942492416344
12.3318898401112662 0.0000000000000000 0.0000000000000000 0.0000000000000000 12.3318898401112662 0.0000000000000000 0.0000000000000000 0.0000000000000000 12.3318898401112662
12.2421035053320448 0.0000000000000000 0.0000000000000000 0.0000000000000000 12.2421035053320448 0.0000000000000000 0.0000000000000000 0.0000000000000000 12.2421035053320448
12.3277074304193430 0.0000000000000000 0.0000000000000000 0.0000000000000000 12.3277074304193430 0.0000000000000000 0.0000000000000000 0.0000000000000000 12.3277074304193430
12.2603791598380649 0.0000000000000000 0.0000000000000000 0.0000000000000000 12.2603791598380649 0.0000000000000000 0.0000000000000000 0.0000000000000000 12.2603791598380649
12.1872325936655432 0.0000000000000000 0.0000000000000000 0.0000000000000000 12.1872325936655432 0.0000000000000000 0.0000000000000000 0.0000000000000000 12.1872325936655432
12.4999940837719290 0.0000000000000000 0.0000000000000000 0.0000000000000000 12.4999940837719290 0.0000000000000000 0.0000000000000000 0.0000000000000000 12.4999940837719290
12.3247698546717821 0.0000000000000000 0.0000000000000000 0.0000000000000000 12.3247698546717821 0.0000000000000000 0.0000000000000000 0.0000000000000000 12.3247698546717821
12.4263093594975746 0.0000000000000000 0.0000000000000000 0.0000000000000000 12.4263093594975746 0.0000000000000000 0.0000000000000000 0.0000000000000000 12.4263093594975746
12.4887794360788114 0.0000000000000000 0.0000000000000000 0.0000000000000000 12.4887794360788114 0.0000000000000000 0.0000000000000000 0.0000000000000000 12.4887794360788114
12.2774021691813768 0.0000000000000000 0.0000000000000000 0.0000000000000000 12.2774021691813768 0.0000000000000000 0.0000000000000000 0.0000000000000000 12.2774021691813768
12.1704061734510010 0.0000000000000000 0.0000000000000000 0.0000000000000000 12.1704061734510010 0.0000000000000000 0.0000000000000000 0.0000000000000000 12.1704061734510010
12.2352599596938827 0.0000000000000000 0.0000000000000000 0.0000000000000000 12.2352599596938827 0.0000000000000000 0.0000000000000000 0.0000000000000000 12.2352599596938827
12.1749255768480413 0.0000000000000000 0.0000000000000000 0.0000000000000000 12.1749255768480413 0.0000000000000000 0.0000000000000000 0.0000000000000000 12.1749255768480413
12.2546397871545665 0.0000000000000000 0.0000000000000000 0.0000000000000000 12.2546397871545665 0.0000000000000000 0.0000000000000000 0.0000000000000000 12.2546397871545665
12.3198459228621253 0.0000000000000000 0.0000000000000000 0.0000000000000000 12.3198459228621253 0.0000000000000000 0.0000000000000000 0.0000000000000000 12.3198459228621253
12.2468036652605878 0.0000000000000000 0.0000000000000000 0.0000000000000000 12.2468036652605878 0.0000000000000000 0.0000000000000000 0.0000000000000000 12.2468036652605878
12.2049565075096655 0.0000000000000000 0.0000000000000000 0.0000000000000000 12.2049565075096655 0.0000000000000000 0.0000000000000000 0.0000000000000000 12.2049565075096655
12.1845837512969695 0.0000000000000000 0.0000000000000000 0.0000000000000000 12.1845837512969695 0.0000000000000000 0.0000000000000000 0.0000000000000000 12.1845837512969695
12.0056638220273513 0.0000000000000000 0.0000000000000000 0.0000000000000000 12.0056638220273513 0.0000000000000000 0.0000000000000000 0.0000000000000000 12.0056638220273513
12.2156157042061313 0.0000000000000000 0.0000000000000000 0.0000000000000000 12.2156157042061313 0.0000000000000000 0.0000000000000000 0.0000000000000000 12.2156157042061313
12.4044271278752785 0.0000000000000000 0.0000000000000000 0.0000000000000000 12.4044271278752785 0.0000000000000000 0.0000000000000000 0.0000000000000000 12.4044271278752785
12.1695378171549198 0.0000000000000000 0.0000000000000000 0.0000000000000000 12.1695378171549198 0.0000000000000000 0.0000000000000000 0.0000000000000000 12.1695378171549198
12.1828594786774698 0.0000000000000000 0.0000000000000000 0.0000000000000000 12.1828594786774698 0.0000000000000000 0.0000000000000000 0.0000000000000000 12.1828594786774698
12.1581732591891765 0.0000000000000000 0.0000000000000000 0.0000000000000000 12.1581732591891765 0.0000000000000000 0.0000000000000000 0.0000000000000000 12.1581732591891765
12.1723518169318279 0.0000000000000000 0.0000000000000000 0.0000000000000000 12.1723518169318279 0.0000000000000000 0.0000000000000000 0.0000000000000000 12.1723518169318279
12.3077380545737434 0.0000000000000000 0.0000000000000000 0.0000000000000000 12.3077380545737434 0.0000000000000000 0.0000000000000000 0.0000000000000000 12.3077380545737434
12.2771720086374980 0.0000000000000000 0.0000000000000000 0.0000000000000000 12.2771720086374980 0.0000000000000000 0.0000000000000000 0.0000000000000000 12.2771720086374980
12.3554702844668221 0.0000000000000000 0.0000000000000000 0.0000000000000000 12.3554702844668221 0.0000000000000000 0.0000000000000000 0.0000000000000000 12.3554702844668221
12.2914258904978642 0.0000000000000000 0.0000000000000000 0.0000000000000000 12.2914258904978642 0.0000000000000000 0.0000000000000000 0.0000000000000000 12.2914258904978642
12.1436960179890470 0.0000000000000000 0.0000000000000000 0.0000000000000000 12.1436960179890470 0.0000000000000000 0.0000000000000000 0.0000000000000000 12.1436960179890470
12.1474054037921793 0.0000000000000000 0.0000000000000000 0.0000000000000000 12.1474054037921793 0.0000000000000000 0.0000000000000000 0.0000000000000000 12.1474054037921793
11.9761606353899648 0.0000000000000000 0.0000000000000000 0.0000000000000000 11.9761606353899648 0.0000000000000000 0.0000000000000000 0.0000000000000000 11.9761606353899648
12.0795596630735638 0.0000000000000000 0.0000000000000000 0.0000000000000000 12.0795596630735638 0.0000000000000000 0.0000000000000000 0.0000000000000000 12.0795596630735638
12.2069370563012516 0.0000000000000000 0.0000000000000000 0.0000000000000000 12.2069370563012516 0.0000000000000000 0.0000000000000000 0.0000000000000000 12.2069370563012516
12.1902933811189786 0.0000000000000000 0.0000000000000000 0.0000000000000000 12.1902933811189786 0.0000000000000000 0.0000000000000000 0.0000000000000000 12.1902933811189786
12.4240907664739311 0.0000000000000000 0.0000000000000000 0.0000000000000000 12.4240907664739311 0.0000000000000000 0.0000000000000000 0.0000000000000000 12.4240907664739311
12.4305224921648829 0.0000000000000000 0.0000000000000000 0.0000000000000000 12.4305224921648829 0.0000000000000000 0.0000000000000000 0.0000000000000000 12.4305224921648829
12.3123920186026954 0.0000000000000000 0.0000000000000000 0.0000000000000000 12.3123920186026954 0.0000000000000000 0.0000000000000000 0.0000000000000000 12.3123920186026954
12.1336880119963570 0.0000000000000000 0.0000000000000000 0.0000000000000000 12.1336880119963570 0.0000000000000000 0.0000000000000000 0.0000000000000000 12.1336880119963570
12.2425543064313498 0.0000000000000000 0.0000000000000000 0.0000000000000000 12.2425543064313498 0.0000000000000000 0.0000000000000000 0.0000000000000000 12.2425543064313498
12.1624994487744331 0.0000000000000000 0.0000000000000000 0.0000000000000000 12.1624994487744331 0.0000000000000000 0.0000000000000000 0.0000000000000000 12.1624994487744331
12.1063059952988912 0.0000000000000000 0.0000000000000000 0.0000000000000000 12.1063059952988912 0.0000000000000000 0.0000000000000000 0.0000000000000000 12.1063059952988912
12.0643805734647138 0.0000000000000000 0.0000000000000000 0.0000000000000000 12.0643805734647138 0.0000000000000000 0.0000000000000000 0.0000000000000000 12.0643805734647138
12.0362970460183600 0.0000000000000000 0.0000000000000000 0.0000000000000000 12.0362970460183600 0.0000000000000000 0.0000000000000000 0.0000000000000000 12.0362970460183600
12.1341982725714441 0.0000000000000000 0.0000000000000000 0.0000000000000000 12.1341982725714441 0.0000000000000000 0.0000000000000000 0.0000000000000000 12.1341982725714441
12.3428249076490690 0.0000000000000000 0.0000000000000000 0.0000000000000000 12.3428249076490690 0.0000000000000000 0.0000000000000000 0.0000000000000000 12.3428249076490690
12.2096980056990745 0.0000000000000000 0.0000000000000000 0.0000000000000000 12.2096980056990745 0.0000000000000000 0.0000000000000000 0.0000000000000000 12.2096980056990745
12.2864081412784536 0.0000000000000000 0.0000000000000000 0.0000000000000000 12.2864081412784536 0.0000000000000000 0.0000000000000000 0.0000000000000000 12.2864081412784536
12.3784458740131313 0.0000000000000000 0.0000000000000000 0.0000000000000000 12.3784458740131313 0.0000000000000000 0.0000000000000000 0.0000000000000000 12.3784458740131313
12.2464031753346649 0.0000000000000000 0.0000000000000000 0.0000000000000000 12.2464031753346649 0.0000000000000000 0.0000000000000000 0.0000000000000000 12.2464031753346649
12.3335922934439068 0.0000000000000000 0.0000000000000000 0.0000000000000000 12.3335922934439068 0.0000000000000000 0.0000000000000000 0.0000000000000000 12.3335922934439068