-1018.352100
-1018.254800
-1019.573600
-1019.893700
-1019.509700
-1019.245200
-1019.826400
-1020.513100
-1020.209200
-1020.212000
-1019.207000
-1020.489500
-1020.092500
-1020.466600
-1019.837500
-1020.466000
-1019.382200
-1019.548000
-1019.574700
-1020.512600
-1019.616200
-1019.963900
-1020.809400
-1020.958100
-1019.970000
-1021.342200
-1020.292300
-1019.100400
-1018.732900
-1020.592100
-1019.760100
-1020.038700
-1019.908600
-1019.170100
-1018.850900
-1020.470400
-1020.894200
-1021.006800
-1020.758400
-1021.288700
-1021.158300
-1020.388400
-1020.464400
-1020.375700
-1021.659700
-1020.840500
-1019.731900
-1019.996100
-1019.862400
-1019.682500
-1020.180300
-1018.560700
-1019.497200
-1020.318300
-1019.236800
-1019.297100
-1020.497900
-1019.650800
-1019.882000
-1018.969200
-1019.306100
-1020.059200
-1019.908400
-1020.419800
-1021.166700
-1020.187300
-1020.667000
-1020.616800
-1020.507800
-1019.659900
-1020.581000
-1018.981300
-1020.020000
-1021.511900
-1019.647400
-1021.939400
-1020.692900
-1020.526800
-1020.992100
-1020.444700
-1020.568300
-1020.536900
-1020.011900
-1019.019300
-1019.522800
-1020.324400
-1020.431800
-1018.381300
-1019.043600
-1020.091000
-1019.730900
-1019.319300
-1020.658600
-1020.627400
-1019.583500
-1019.773700
-1018.989100
-1019.302300
-1019.845600
-1020.795000
-1020.335100
-1019.058300
-1019.404100
-1020.603600
-1019.383400
-1019.908700
-1020.636500
-1021.192100
-1020.728500
-1019.340500
-1020.981700
-1019.145500
-1019.652400
-1019.291300
-1019.707100
-1019.076300
-1018.989900
-1019.299100
-1019.229800
-1020.613400
-1020.231200
-1019.800800
-1018.355600
-1019.584100
-1020.743800
-1020.305000
-1020.092500
-1020.355500
-1019.683200
-1020.455200
-1021.058600
-1019.668800
-1020.117000
-1019.750700
-1019.265800
-1020.173900
-1020.279500
-1019.090000
-1019.650000
-1019.795600
-1019.843300
-1019.803600
-1019.021200
-1020.100900
-1021.226700
-1021.030400
-1019.931300
-1020.189800
-1020.072500
-1020.065100
-1018.863200
-1020.121400
-1017.616400
-1018.407700
-1019.703100
-1019.832800
-1020.658600
-1020.542900
-1020.311000
-1019.477100
-1019.751500
-1020.957800
-1019.983100
-1020.579500
-1018.179600
-1019.631900
-1020.273100
-1020.579300
-1020.476600
-1020.899100
-1019.956000
-1020.431000
-1020.201600
-1020.535700
-1018.609700
-1020.054100
-1020.104500
-1019.615200
-1019.199000
-1019.515300
-1019.845900
-1019.967100
-1018.412600
-1020.063000
-1019.356500
-1020.456100
-1019.425700
-1018.718400
-1019.089500
-1018.670300
-1019.438800
-1019.525600
-1018.449500
-1018.910300
-1018.952700
-1019.513300
-1018.659400
-1019.107200
-1019.337700
-1019.209400
-1018.596700
-1018.861200
-1020.268700
-1019.593200
-1018.821100
-1019.095400
-1018.539800
-1020.668000
-1019.852500
-1018.968100
-1019.027300
-1018.237600
-1017.889500
-1018.762500
-1020.900400
-1019.622000
-1019.396700
-1018.426400
-1019.340700
-1020.023300
-1018.641200
-1020.038800
-1019.840300
-1018.789500
-1018.513800
-1018.109400
-1018.309100
-1019.019300
-1019.476700
-1018.517200
-1018.744700
-1020.519900
-1020.062600
-1018.348700
-1020.062100
-1019.132300
-1019.677600
-1018.738800
-1019.662900
-1018.130700
-1017.933900
-1018.645000
-1019.048500
-1017.640600
-1018.565300
-1020.258200
-1019.143600
-1019.991500
-1021.213100
-1020.680800
-1019.307000
-1019.865100
-1019.867700
-1020.347800
-1020.268100
-1018.220200
-1018.692400
-1018.325100
-1017.789000
-1018.999900
-1018.990700
-1019.295200
-1019.696400
-1019.327500
-1019.109500
-1019.788100
-1019.325100
-1020.977400
-1020.101300
-1021.229000
-1020.459300
-1019.397100
-1018.961400
-1019.229400
-1018.770600
-1019.724200
-1020.349300
-1019.960300
-1019.693000
-1020.106100
-1019.484900
-1019.060000
-1018.522900
-1018.891800
-1018.912000
-1019.799600
-1017.063500
-1018.673700
-1019.981400
-1018.615700
-1020.265200
-1019.017900
-1019.094700
-1019.296200
-1020.109100
-1018.953200
-1020.218000
-1019.692600
-1019.375500
-1020.448500
-1019.546300
-1018.248800
-1020.518900
-1019.386300
-1018.890700
-1019.934500
-1019.992000
-1019.688500
-1019.403000
-1019.610000
-1019.662800
-1019.338600
-1018.731500
-1019.330900
-1018.292200
-1019.371300
-1019.887400
-1020.707800
-1020.039000
-1018.208700
-1019.479400
-1020.707600
-1018.504600
-1018.084400
-1019.941900
-1019.195500
-1018.754300
-1018.213900
-1018.405400
-1019.825300
-1020.079800
-1019.623300
-1019.291800
-1020.361200
-1020.052500
-1020.157600
-1019.572200
-1020.159700
-1019.370700
-1019.365900
-1020.261900
-1020.020900
-1018.975300
-1019.165300
-1019.148600
-1019.812100
-1020.197400
-1019.214400
-1019.179100
-1018.866100
-1018.749200
-1019.411000
-1019.129600
-1020.739700
-1019.378100
-1021.985800
-1020.958500
-1020.373000
-1019.967500
-1018.999400
-1019.363200
-1020.204300
-1018.293200
-1019.916600
-1019.519600
-1018.244600
-1020.462600
-1018.563400
-1018.455300
-1020.092500
-1019.101600
-1018.957800
-1019.146500
-1021.062500
-1020.245900
-1019.618300
-1019.230900
-1020.052300
-1019.692800
-1019.177600
-1018.469300
-1019.070900
-1018.966900
-1018.592200
-1018.878700
-1019.382800
-1018.625100
-1019.997000
-1019.215400
-1019.543900
-1019.706200
-1019.883400
-1020.166800
-1018.720600
-1018.839900
-1019.215300
-1018.434800
-1019.462600
-1018.792400
-1019.790900
-1018.914900
-1019.066300
-1019.399600
-1018.725600
-1019.948100
-1018.680100
-1018.505200
-1019.923600
-1020.491200
-1020.938100
-1021.063100
-1020.253600
-1020.018200
-1020.002700
-1019.402600
-1020.307100
-1019.991900
-1020.485000
-1020.205100
-1021.438200
-1020.789100
-1020.014300
-1020.103700
-1019.714300
-1020.259300
-1020.420400
-1020.454900
-1011.637500
-1016.753900
-1017.829400
-1018.625400
-1019.489300
-1019.489400
-1019.689700
-1018.937600
-1020.138800
-1019.389900
-1020.360600
-1019.955600
-1018.912100
-1018.842400
-1019.066600
-1019.842700
-1019.242100
-1019.523400
-1019.678700
-1019.122200
-1019.267800
-1019.625200
-1019.335300
-1018.484300
-1019.983900
-1019.386500
-1019.190200
-1019.089800
-1020.207300
-1019.643900
-1020.004000
-1019.828900
-1019.716900
-1020.448000
-1019.438000
-1018.925700
-1019.380500
-1019.646400
-1018.948500
-1018.488200
-1019.629700
-1020.421200
-1020.419200
-1020.581400
-1019.879300
-1020.496300
-1020.199400
-1020.057000
-1018.934200
-1019.973400
-1020.431300
-1019.677500
-1019.296000
-1019.107500
-1018.250900
-1019.557600
-1018.695700
-1020.191500
-1019.354100
-1019.875500
-1020.005600
-1019.238200
-1019.881000
-1019.514400
-1019.238000
-1019.829800
-1020.467900
-1019.394800
-1019.203600
-1018.809200
-1019.579800
-1018.877100
-1018.051400
-1020.074500
-1020.076300
-1020.329600
-1020.676300
-1018.736200
-1019.812200
-1019.370500
-1019.139400
-1019.215400
-1019.036200
-1017.932400
-1019.530200
-1018.003800
-1018.111200
-1019.851200
-1018.356300
-1019.622200
-1019.286900
-1018.947600
-1019.672200
-1019.428100
-1019.231300
-1020.265600
-1020.058700
-1020.038600
-1020.628600
-1020.433500
-1018.690100
-1021.032000
-1020.721500
-1019.570600
-1018.482300
-1020.014100
-1018.949800
-1018.760100
-1019.567200
-1018.494300
-1010.906800
-1015.562200
-1019.551800
-1020.175600
-1020.162400
-1019.752600
-1018.925400
-1019.169400
-1018.517000
-1019.255300
-1018.244600
-1018.777300
-1018.646100
-1020.652100
-1018.867800
-1019.715200
-1019.630300
-1019.336300
-1018.394200
-1020.693400
-1019.131500
-1020.153400
-1018.697400
-1018.509500
-1018.057900
-1020.136300
-1019.987700
-1018.467400
-1017.724500
-1017.987000
-1019.956200
-1019.628500
-1017.829700
-1018.607800
-1018.993400
-1019.074800
-1018.473400
-1018.938900
-1019.905500
-1019.788300
-1020.177800
-1020.471100
-1020.195700
-1019.398300
-1019.634000
-1019.574600
-1018.750600
-1020.076800
-1018.025300
-1018.492600
-1015.444300
-1018.623600
-1020.076000
-1017.738800
-1018.575900
-1018.887400
-1018.885200
-1018.321300
-1018.369100
-1018.722500
-1018.865200
-1018.164800
-1018.439400
-1017.799500
-1019.567700
-1019.942000
-1019.282100
-1019.274200
-1019.309800
-1019.757500
-1019.707600
-1018.201200
-1021.045000
-1018.606500
-1018.857200
-1018.957700
-1018.599300
-1018.250400
-1018.494600
-1020.388200
-1019.927800
-1018.662400
-1021.403000
-1019.178300
-1019.605900
-1020.437500
-1019.357500
-1020.491000
-1019.977100
-1020.493600
-1019.584100
-1019.180800
-1019.590300
-1018.612400
-1019.209900
-1018.903900
-1019.412400
-1019.114900
-1021.047300
-1019.598900
-1019.492300
-1020.440800
-1019.839100
-1020.177800
-1020.136700
-1020.030600
-1019.903200
-1019.684000
-1019.500700
-1019.119700
-1018.263700
-1020.040200
-1020.270000
-1020.681900
-1017.632200
-1019.168800
-1019.605300
-1019.505500
-1018.300000
-1019.954500
-1019.611300
-1018.734700
-1019.368100
-1020.627900
-1018.970500
-1020.518900
-1019.685000
-1019.091000
-1019.844000
-1020.627600
-1018.790600
-1018.103200
-1019.195900
-1019.851600
-1019.536700
-1020.071800
-1019.750800
-1018.828000
-1019.928600
-1019.874600
-1019.900900
-1019.678000
-1020.957300
-1019.526800
-1018.992700
-1018.910900
-1016.206100
-1017.475500
-1018.498400
-1017.987100
-1019.974400
-1020.186900
-1017.892800
-1018.117800
-1018.258000
-1020.363500
-1018.917600
-1018.766200
-1019.519500
-1017.381700
-1019.336800
-1019.428100
-1019.912900
-1018.663000
-1019.513400
-1019.508800
-1019.753400
-1020.383000
-1017.233800
-1015.844600
-1016.875200
-1018.598600
-1016.850100
-1017.455400
-1017.101800
-1018.604600
-1018.047900
-1018.130800
-1018.503200
-1018.129400
-1019.757200
-1017.726900
-1018.300000
-1018.843000
-1018.555600
-1019.284400
-1018.224200
-1018.317800
-1019.011100
-1020.420800
-1018.949100
-1018.952500
-1018.797100
-1015.722100
-1018.186800
-1017.983000
-1016.188000
-1016.992000
-1018.207000
-1014.674700
-1017.985500
-1018.720500
-1019.314200
-1016.907400
-1017.554400
-1018.357600
-1018.925600
-1018.064600
-1016.946300
-1018.315000
-1018.392300
-1017.981500
-1019.412600
-1017.738900
-1018.337400
-1018.163200
-1018.796400
-1018.897700
-1018.530600
-1019.300400
-1016.916900
-1017.985400
-1018.331100
-1018.254400
-1019.141200
-1019.130800
-1018.729100
-1019.182600
-1019.303800
-1018.980200
-1018.335600
-1018.497500
-1017.538100
-1017.861000
-1018.477800
-1019.366100
-1019.080000
-1018.227100
-1018.791300
-1018.468000
-1018.060700
-1019.023900
-1019.055200
-1019.965600
-1019.334800
-1019.108900
-1019.101100
-1019.782000
-1019.285100
-1019.121300
-1020.282700
-1019.393500
-1018.819700
-1019.593800
-1019.927200
-1019.049000
-1019.093500
-1020.257900
-1020.018200
-1019.159700
-1019.489100
-1019.585000
-1019.653200
-1019.458900
-1019.506300
-1019.132400
-1020.417100
-1020.514600
-1018.756300
-1018.987000
-1019.403200
-1019.819900
-1019.850500
-1019.113800
-1018.707600
-1018.623100
-1018.802800
-1019.698100
-1018.459300
-1018.941200
-1018.747600
-1018.662800
-1019.781500
-1019.124600
-1019.694300
-1018.941900
-1018.662200
-1019.358700
-1019.425300
-1019.640700
-1019.404300
-1019.231900
-1018.361100
-1019.083400
-1017.680800
-1018.992400
-1019.244800
-1019.210700
-1018.927700
-1019.239400
-1020.096000
-1019.321700
-1018.720200
-1018.512400
-1018.948800
-1019.054300
-1018.985700
-1019.038400
-1018.574700
-1019.026600
-1017.650200
-1018.596100
-1018.900600
-1017.870500
-1016.505900
-1017.380300
-1016.142300
-1017.117900
-1017.851100
-1018.386300
-1019.781100
-1017.751500
-1017.491100
-1016.208900
-1017.997900
-1019.314400
-1015.836400
-1016.789300
-1019.019100
-1017.765000
-1015.488300
