    1.508200     0.539000     9.977220     4.849770     0.668270    10.028020     6.788130     3.751730    10.540800     3.228400     3.763760    10.460570     1.615230     6.319570    11.124510     4.955530     6.549070    10.863980     0.092190     9.455500    11.465730     3.326340     9.562910    11.248320     1.532960    12.700650     0.790730     4.919630    12.791010     0.528300     1.657390    28.036960     1.169200     5.113300    27.521890     0.522150     6.708720     1.257810     1.284540     3.277600     1.212460     1.126820     1.609460     4.101640     1.910950     4.896680     4.004100     1.794660     6.676090     6.920780     2.427740     3.337820     7.130640     2.401640     1.533300     9.853270     2.611440     4.941540    10.102910     2.720320     1.806070     1.695330     4.539900     5.257340     1.710370     4.615640     0.009610     4.688880     5.022910     3.282010     4.634820     5.130240     1.469840     7.665470     5.479900     4.945060     7.663990     5.464380     6.756120    10.572250     5.657750     3.431870    10.501710     5.706490     1.692040    13.896330     6.021940     4.893740    13.437450     5.854090     1.882390    28.218100     5.609410     5.423240    28.440240     6.886620     6.695410     1.973750     7.375490     3.566170     1.978300     7.449250     1.575500     5.494740     7.934640     5.034790     5.267750     7.946750     6.720690     8.491890     8.355410     3.161350     8.181190     8.294120     1.356700    11.526910     8.426200     4.897940    11.247520     8.659680     0.128260    28.770650    11.333990     3.448410    28.967750    11.163640     1.336590     2.306790     0.023550     4.783770     2.488430    11.411490     0.100220     5.175410     0.880630     3.364130     5.609390     0.921640     1.404860     7.978450     1.275000     5.048800     8.443770     0.723490     6.748140    11.212930     1.754040     3.474590    11.379800     1.423120     6.777710     0.199810     5.632900     3.394100     0.461300     5.475940     1.971200     3.315570     6.510320     5.255040     3.417630     6.236300     3.202880     6.455900     6.611540     6.604390     6.551200     6.804560     1.480080     9.589000     6.928660     4.875900     9.362540     7.203360     0.077410    12.678760     6.873080     3.400070    12.259960     7.189190     2.948030    18.306170     9.683760     3.195850    16.735230     5.287970     5.400430    15.284170     3.443920     3.581520    20.604390     4.789230     6.749680    12.386960     3.346870     1.200260    15.586990     2.465100     3.842960    28.913570     3.797350     0.003530    20.566870     9.538130     5.029100    17.578850     0.961600     1.415100    15.885790    10.793980     2.290170    17.824150     1.297330     3.050050    20.215250     7.406740     3.049810    21.902280     2.407000     1.769070    24.830780     3.509440     4.045080    20.272090     0.390080     0.068230    23.413990     8.089150     4.077730    26.117060     3.213630     1.013540    22.327930    11.528120     5.423520    15.728310    10.522950     0.368240    19.482880     0.683840     0.712800    22.483640     4.506550     6.643800    13.929860     8.499000     1.035170    16.732690     8.107340     3.776090    13.767950     8.774120     0.237420    24.597050     1.615060     4.766920    15.968620     7.650060     5.044040    23.116780     5.979340     5.613870    18.369590     8.794760     4.417130    24.196780     1.473730     0.075060    27.349340     9.781330     3.160280    27.673990     9.512030     5.248930    25.325350     8.849080     1.628910    25.919200     7.850560     2.661980    22.387010     9.457430     3.209380    12.206580     3.327630     6.497800    28.796740     3.566860     6.191390    25.872110     5.036690     6.323580    21.530190     2.264060     3.372920    25.037650    10.788180     3.915710    18.266050     9.641960     4.340430    21.167900     4.920840     2.786000    17.592410    10.355540     2.880980    17.628710     5.122430     4.980690    15.512490     4.276980     2.934050    16.386300     4.393190     3.263040    20.327500     5.751890     1.521710    14.745410     2.073950     1.211570    18.984270     0.954920     1.405820    22.015120     4.961480     0.296500    15.358470     2.855730     0.100820    21.538070     9.477850     0.228020    20.401300    10.461990     5.639960    18.359690     0.893100     2.125750    19.912730     7.405260     3.117060    21.305650     3.172920     5.375800    16.895190     0.247950     3.540190    19.384870     7.661690     1.594860    16.218150     0.189260     1.976790    17.162890     1.942670     1.707850    14.990860    10.835300     3.255240    21.314360     1.638890     4.403840    26.203820     2.288380     1.795690    23.976080     4.062640     2.658830    25.307090     3.368050     0.886100    23.229090     8.572560     3.955470    23.433900     1.924720     1.257840    23.076220     0.530560     6.360250    24.068510     8.656620     0.085160    22.103750     0.279670     0.108310    13.485980     9.261630     6.430030    15.868310    10.524990     0.278830    20.336540     1.244120     6.718220    22.727520     5.071110     1.974110    16.744330     8.499660     4.143090    14.567050     8.326790     4.457160    13.616610     9.418350     3.520450    29.370360     2.920390     1.209630    16.327450     7.203660     0.700110    24.527660     2.488940     5.419080    22.997970     6.841240     4.344730    16.168940     6.778420     5.779500    19.350540     8.935880     0.116180    25.411720     1.174840     5.098460    16.830470     8.006400     6.578990    18.130070     8.664690     4.842570    24.043230     5.827390     4.459390    24.975320     9.378720     3.356630    27.814430     8.582820     4.774990    25.732150     3.783810     4.953690    25.992460     8.220940     2.363370    21.830500    10.205120     1.221800    25.024330     7.855130     3.005930    21.916550     8.711960     4.974610    15.811590     2.728060     0.223240    12.147380     4.284890     6.171680    13.183750     3.600580     3.830360    27.956130     3.753670     3.171530    17.862910     0.994460     4.967320    20.365520     0.043460     3.795180    19.416620     0.203210     5.268180    14.910340    11.065220     6.790600    14.850520     8.663460     5.381400    24.375120     1.600220     6.062750    26.895070     9.502640     0.798150    27.406560     9.116600     3.138200    26.695730     9.645350     1.433830    26.242700     6.985810     2.242050    12.341640     3.500180     3.753410    12.020450     4.106640     5.862430    29.238490     3.042290     0.392240    28.485770     2.946500     0.207410    25.874650     4.615470     6.179810    26.517900     5.691150     5.505640    21.098950     2.481180     6.520840    22.091720     3.057570     2.927920    24.210400    10.648350     3.908020    24.817600    11.515900 
    1.799000     0.363790    10.086670     5.284770     0.419800    10.233990     0.002870     3.449560    10.492850     3.480720     3.415240    10.352380     1.556540     6.268850    10.937350     5.249030     6.551820    10.828070     0.020360     9.576090    11.196100     3.481710     9.778560    11.223880     1.513370    12.586410     0.636250     5.176530    12.831250     0.890570     2.038380    27.417260     0.788860     5.494990    27.710240     1.005200     0.162790     0.852180     1.503680     3.548600     1.074360     1.179910     1.739170     4.085390     1.654270     4.909690     4.181100     1.630920     6.765330     7.092560     2.264070     3.433320     7.115330     1.998070     1.793160     9.978310     2.640860     4.987940     9.838790     2.596830     1.464410     1.592530     4.566950     4.904990     1.866310     4.492720     6.603940     4.571390     4.863440     3.257700     4.588970     4.921960     1.441000     7.687120     5.368470     4.888940     7.684230     5.321790     0.165770    10.764680     5.861570     3.583870    10.760400     5.782020     1.367900    13.921790     5.822710     4.847160    13.780200     5.844480     1.338070    28.700290     6.742140     4.808630    28.624610     6.783400     6.575040     2.211850     7.498310     3.263340     2.174120     7.628700     1.481580     5.264240     7.835650     4.938060     5.205660     7.725690     6.635220     8.365670     8.078520     3.370680     8.317510     8.057780     1.906390    11.561740     8.558680     5.178270    11.430260     8.519920     0.512720    28.569160    11.260820     3.801570    28.661920    11.228750     1.453530     2.177870     0.330910     4.967440     2.324810    11.447130     6.722210     5.000230     0.582540     3.624660     5.524190     0.230000     1.469170     8.066390     0.965150     4.962510     8.590680     0.649900     0.222630    10.947360     1.574790     3.478710    11.611490     1.489940     6.445770     0.548180     5.800450     3.025310     0.379770     5.953600     1.694940     3.386700     6.221900     5.124310     3.384750     6.220780     3.113930     6.448130     6.406510     6.579750     6.196390     6.441360     1.692840     9.564600     7.123070     5.002350     9.491690     7.018160     0.240070    12.643070     7.192850     3.800950    12.617870     7.263430     3.313900    17.298360     9.129440     3.354150    16.750710     5.881310     5.801550    17.718070     4.078770     3.225970    21.092100     4.677130     0.223340    12.276950     3.282750     1.412960    15.864490     3.059240     2.951530    28.808140     3.822860     5.141980    21.856960    10.785840     4.981750    17.637960     1.207480     2.646000    15.345260    10.967550     1.852620    18.339460     1.753910     1.858720    19.238080     7.711650     2.413350    21.269260     1.779870     0.673400    24.728630     3.840300     3.676160    19.827380    11.521130     6.375870    23.015660     8.294560     2.918970    26.223050     3.801020     0.635780    22.178780     0.173770     6.728070    15.698650    11.459650     6.743630    19.640950     0.702260     0.451750    22.278770     4.635620     0.300190    13.982140     8.832070     0.138880    17.434810     6.191880     3.689470    14.134160     8.821830     6.120170    24.505060     1.612920     5.745400    15.951820     7.877400     4.993180    22.985060     5.771320     0.118870    19.598680     9.628680     3.573530    23.989080     1.952820     0.570350    27.133610     9.549810     3.403310    27.571490     9.546870     5.462060    25.465100     8.828640     2.593670    24.818220     6.592830     2.165750    22.555660     9.424660     3.186380    12.588100     3.347090     6.564120    28.770480     4.064760     5.569470    25.661100     6.221550     5.541030    21.034700     2.598860     2.930580    24.880140    10.161220     2.679780    17.785400     8.597180     3.830050    21.842960     5.034110     3.970770    17.002480     8.522130     2.933610    17.641980     5.945730     4.892300    17.737870     4.422080     2.752630    16.161230     6.323270     3.853480    20.487880     4.208910     1.345950    14.915420     2.734770     0.721440    19.279380     1.261190     1.198720    21.708290     4.761290     2.156420    15.717240     3.745050     5.663070    22.068440     9.972780     5.997210    21.979440    11.357250     5.438590    18.493750     1.425510     1.231660    19.720830     8.391500     2.645750    21.288040     2.727830     5.719530    16.989870     0.739850     2.622850    19.755510     7.610420     3.126900    16.168290    10.812750     1.731170    17.478620     2.252850     2.727070    15.255340     0.345380     3.004820    20.564830     1.460630     3.428520    25.767330     3.069960     0.631430    23.843920     4.234790     1.541330    25.146680     3.967510     0.534940    23.040360     8.243960     3.296010    23.079790     1.582640     0.735960    23.143010     0.511980     6.152390    23.893610     8.753180     1.346040    21.647290     0.644240     0.098110    13.674860     9.692060     0.866390    15.893240    11.191960     6.359400    20.325050     1.174670     6.519060    22.016510     5.086850     6.551340    17.293190     5.235300     4.263980    14.915420     8.951530     2.948230    14.238410     9.460500     3.184460    29.092760     2.910250     0.746010    18.158820     6.153920     6.771040    24.736810     2.380530     5.194350    22.965320     6.762120     5.203360    15.550330     7.220280     6.677650    18.717840     9.365800     5.817290    25.356390     1.224810     6.321310    16.599110     7.324860     0.568770    19.483770    10.463870     5.212790    23.969850     5.725980     4.586590    25.471040     9.248960     3.625330    27.930550     8.695350     3.139460    25.877070     4.749900     5.501310    25.704670     7.928560     1.653660    22.351000    10.213840     2.851290    23.885100     6.612410     2.996290    22.072050     9.530780     5.831270    17.462610     3.168590     6.162100    12.724990     3.341750     0.288560    11.760050     4.108220     3.154880    27.864560     3.773640     2.655440    18.352280     1.208890     4.317020    20.591710    11.209380     4.210410    19.072420    11.336560     6.627120    14.896750     0.489750     0.022370    14.951550     8.770460     4.551640    23.936170     1.738530     0.061530    26.282160     9.461400     0.537800    27.720580     8.771480     2.994960    26.638300     9.573970     1.648250    24.911570     6.739010     3.859620    12.788830     4.015590     2.450210    12.019180     3.622350     5.876320    28.820670     3.380410     0.565500    28.912690     3.627790     6.402920    25.805790     5.711840     4.933380    26.458020     6.123760     5.018770    21.830970     2.411430     6.230740    21.447410     3.072690     2.803300    23.930890     9.961890     2.803910    24.951750    11.099520 
    1.855310     0.567860    10.264930     5.012600     0.603510    10.169110     6.688820     3.493430    10.530070     3.365080     3.475200    10.435990     1.424880     6.557050    10.742630     4.793030     6.614240    10.598560     6.574980     9.941680    11.143950     3.047350     9.948590    11.014260     1.318820    13.035100     0.288920     4.814590    13.335240     0.688670     1.489760    27.826810     1.115710     5.139600    27.695170     0.908120     6.695280     1.406010     1.658190     3.315120     1.252340     1.668070     1.614420     4.306530     1.808230     5.030420     4.287040     1.808420     6.223100     7.406460     1.809050     3.040880     7.476760     1.786580     1.299550    10.250970     2.373510     4.643810    10.188610     2.429780     1.740510     1.514570     4.787010     5.101990     1.503200     4.729280     6.741050     4.508060     4.826930     3.516550     4.318170     4.653930     1.665640     7.515610     4.905580     5.077480     7.414790     4.915160     0.009480    10.619280     5.389790     3.428500    10.563980     5.541820     1.579380    13.681160     6.266190     5.061090    13.887260     5.791540     1.733470    28.713700     7.246250     5.143090    28.437590     6.514260     0.046750     2.264990     7.441920     3.292620     2.059980     7.391050     1.731100     5.219010     7.532270     5.187340     5.382690     7.651550     6.683110     8.089640     7.895770     3.268880     8.182340     7.790130     1.456890    10.991640     8.249010     4.746710    11.259040     8.322170     0.109830    29.299780    11.455170     3.266590    28.723540     0.098000     1.584770     2.480690     0.335960     4.947470     2.356950     0.116450     6.400900     5.544610     0.232620     3.352450     5.359620     0.462260     1.044850     8.283160     0.631850     4.535870     8.900320     0.575170     6.738500    11.481010     1.244820     3.285910    11.854960     1.146380     0.029650     0.358390     6.036530     3.211650     0.264560     5.799150     1.734390     3.511570     5.882930     5.041030     3.067100     6.292450     3.462120     6.170420     6.092040     0.097790     6.234260     6.130890     1.224910     9.179480     6.579340     4.938100     9.453020     6.744700     0.136060    12.285900     7.176750     3.497190    12.591670     6.824520     4.466120    17.139700     8.967210     4.006160    16.549240     6.220780     4.936870    19.692590     5.481330     3.762280    22.318330     5.992010     6.468220    12.691520     3.206410     3.386930    14.909950     3.435390     2.811360    28.411770     3.869950     6.237130    20.539550    11.409370     4.869310    17.019030     2.175120     2.339260    15.369040    10.015150     2.993870    18.039770     4.351580     4.775290    19.661370     9.048240     3.435100    21.010750     2.690300     6.553750    25.377400     3.332500     3.820340    19.398070     0.734470     6.741860    22.037160     8.497950     3.210080    25.659860     3.064830     1.220350    23.022370    10.903180     1.172430    15.663290     1.827510     0.732190    18.198520     2.609320     1.420870    21.150410     4.857550     6.697780    13.701100     8.628210     6.629790    17.545110     5.706130     3.317120    13.519630     8.682840     5.884180    24.321530     0.309870     0.249050    16.169410     8.390280     4.529230    23.333020     8.272840     1.188450    18.448550    10.067610     3.081060    23.193290     1.241010     0.217000    27.875840     9.966870     3.416150    27.696980     9.960990     5.873010    25.657500     9.359810     2.040710    25.124260     6.354850     2.326080    20.625950     8.781650     3.002430    12.387040     3.068470     6.670790    28.877000     3.927750     6.020800    24.811780     6.125430     6.300260    20.710730     2.525220     3.147070    25.193150    10.388090     4.937840    17.981370     9.245860     3.866150    22.378620     6.982390     5.150040    16.439180     8.802830     4.309420    15.704560     6.509540     5.930570    19.451810     5.507700     3.842150    17.031320     7.087920     4.359580    21.466470     5.868560     2.557430    15.147280     2.830380     1.565510    18.132290     3.121380     2.279050    21.564900     5.113540     2.888270    15.073250     4.258970     5.913830    21.257850    10.794930     6.334140    20.999640     0.672850     5.803280    17.237740     2.148970     5.606100    20.113190     8.718260     2.800280    20.662490     3.301040     4.613260    16.273720     2.785010     4.007260    20.065360     8.598420     3.268820    15.564040    10.384540     3.478820    17.304860     4.735540     1.703830    14.896390    10.628180     3.468590    20.352350     1.937550     2.901950    25.544450     2.168370     6.337520    26.289900     3.329280     5.692530    24.917950     3.477000     0.469620    21.856990     7.731400     3.367170    22.523310     1.802660     0.388310    23.260910    11.456100     0.608160    22.367370     9.138120     1.897460    22.842940     0.077160     5.852780    13.676520     9.040140     0.953270    16.389460     1.270160     0.349150    19.042260     2.685690     1.653500    20.173510     5.095690     0.319750    17.323210     4.959970     3.347930    12.918450     9.400470     2.586640    14.151940     8.962740     2.605390    28.987040     3.072280     5.847580    17.031490     5.625700     5.943240    24.639530     1.262060     5.261540    22.804270     8.521860     0.288170    16.805010     7.591540     0.816320    18.846310    10.839260     5.818340    25.121550    11.294870     0.572240    16.795290     9.058120     2.031180    18.072440    10.295290     4.862550    23.840170     7.444300     5.073900    26.011450     8.843120     2.745700    28.125050     9.393250     2.563880    25.276340     3.651360     6.468670    25.122930     8.809910     1.531950    20.256780     9.095110     2.469620    24.278280     6.461350     2.705970    21.054230     9.568890     4.468200    18.942820     5.097740     5.811170    13.135510     3.828060     0.027080    11.983790     3.840610     3.294620    27.606050     3.515030     3.560250    18.250270     3.594650     4.713070    19.755810     0.395120     3.925890    18.528370     1.015450     1.033310    14.873710     1.182330     0.237990    14.659710     8.481630     3.847350    23.769650     1.073810     6.376010    27.176500    10.104640     0.271190    28.077460     9.024580     3.288050    26.747510    10.071830     2.540520    25.644770     6.941610     2.844250    11.747610     3.789040     3.062620    13.326490     3.495300     6.000880    29.282920     3.271590     0.439630    28.303290     3.333870     0.146180    24.510740     5.947630     5.959580    25.742490     5.886270     5.547420    20.617440     3.093960     0.205370    21.137620     3.015540     2.468040    24.530560    10.558940     3.856290    24.696370     9.955380 
    1.471550     0.582920     9.801230     5.072120     0.721970     9.959470     6.688730     3.603200    10.490370     3.191660     3.594080    10.490580     1.654410     6.557610    10.679650     5.056960     6.495990    10.857730     6.802720     9.640630    11.321850     3.668420     9.533280    11.162430     1.994480    12.829740    11.356970     5.439050    12.571290     0.218720     1.412240    27.112430     0.292410     4.838960    27.967600     0.752720     6.696590     1.154650     1.155810     3.244190     1.170010     1.165840     1.625840     4.085420     1.649400     4.961040     4.113340     1.675270     0.085580     7.146440     2.203590     3.491500     7.200620     2.055370     2.128770    10.230910     2.460560     5.162880    10.229170     2.548100     1.496050     1.675480     4.418970     4.747840     1.668770     4.324590     0.008730     4.505700     4.684170     3.305330     4.543420     4.764780     1.544390     7.491590     5.264890     5.024710     7.384830     5.083650     0.017250    10.544280     5.456130     3.038180    10.346420     5.393170     1.349530    13.578440     6.115850     4.809440    13.417890     5.519070     1.448250    28.482010     6.537980     4.829150    28.346980     6.371310     6.562950     2.194530     7.156360     3.140670     2.133650     7.196450     1.550380     5.040850     7.639820     4.966470     5.203650     7.537680     6.552390     8.178080     7.995570     3.275970     8.187000     7.917260     1.609180    11.263530     8.317120     4.849030    11.116950     8.083500     6.710890    28.599500    11.268250     3.480050    29.141830    11.020430     1.593550     2.135810    11.452490     4.825120     2.513250     0.078990     0.098250     5.351910     0.512480     3.184750     5.429100     0.493340     1.860820     8.613360     0.780990     5.270460     8.227240     0.927230     6.756700    11.224450     1.459700     3.383430    11.907450     1.073200     6.805300     0.335140     5.538400     3.169530     0.195880     5.506410     1.455070     3.469890     6.044300     4.827640     3.237200     6.066910     3.316340     6.333370     6.371230     6.747190     6.298570     6.358120     1.464760     9.190350     6.874150     4.780960     9.417630     6.349130     6.682690    12.101450     7.107100     3.313320    12.388970     6.685380     4.830540    17.154530     9.800610     3.655130    16.609800     6.998280     5.566190    20.926290     5.048950     2.903340    23.524610     4.295240     0.375260    12.585530     3.046820     2.381950    15.690090     2.269430     3.045890    28.638670     3.666410     1.298780    18.874170     3.130020     4.162480    17.786340     2.780710     2.487540    16.512050    10.795520     3.682710    19.040870     5.258730     4.839540    19.940080    10.333970     4.152860    21.599020     2.954280     3.942100    26.204940     4.019330     5.791560    19.386230     1.410690     0.541900    20.999760    10.044440     6.545980    26.205180     3.134820     0.649230    23.415790    11.280420     6.354420    16.213190     0.322380     6.753030    16.548860     3.113810     1.455720    20.878110     5.596860     6.339000    13.544350     8.582360     6.078590    16.449870     5.734150     3.655950    13.659000     8.332920     4.721490    25.034840     1.549240     0.888930    15.898260     8.602140     4.428530    23.418980     7.211890     1.274800    18.916590    11.499610     3.039550    23.236620     0.734650     6.550140    27.697650     9.459860     3.310380    27.957430     9.295410     5.673420    25.218730     9.868940     2.091700    25.265970     6.475490     3.065120    22.185430     9.479130     3.411570    13.164670     2.770230     6.711900    28.800460     3.600790     6.374690    25.417040     7.216530     0.124780    23.506360     3.981660     2.981750    25.332490     9.933660     4.979420    18.139500     9.791430     3.187110    23.228590     5.169200     5.084180    16.819070    10.650020     2.981290    15.967150     7.085180     6.493880    20.802280     5.322210     4.098360    16.643570     7.911230     3.191730    22.834780     3.671290     2.240810    15.743110     1.320540     6.375530    16.531810     3.994520     1.378470    21.009450     4.611210     1.501930    15.892350     2.577060     2.090820    18.891750     2.530100     0.652870    19.156400     2.412440     5.111530    17.535070     2.886550     5.715840    20.457420    10.049420     4.513460    21.394240     2.072180     3.705690    16.909400     2.657430     4.061410    20.494760    10.137530     3.207040    16.945380    10.224500     3.343500    18.429320     5.908030     2.160910    17.391740    11.196530     4.563520    21.005780     3.582620     6.523560    26.110680     2.199030     4.811680    26.248280     4.447390     3.534150    25.355000     4.453800     1.213770    21.525840     9.533920     3.073280    22.604040     1.430120     0.024290    23.415230     0.500540     0.438320    21.588230    10.787720     1.576780    23.421870     0.109570     6.378250    13.284220     9.547120     6.386540    16.487710     1.214870     0.645360    17.358120     3.032040     1.990410    20.071950     5.676230     6.482270    15.604860     5.908860     4.419080    13.332900     8.815360     2.960410    13.669960     9.058580     3.453580    27.665690     3.726730     5.168250    16.423110     5.942570     4.765010    25.248950     2.492370     4.751750    22.618580     6.795700     0.408580    16.700520     8.285750     0.323770    18.660890    11.339450     4.559690    25.918340     1.122670     1.306920    16.143360     9.494790     1.432760    19.743100    10.972250     5.167830    23.992180     7.051120     6.350600    24.838020    10.455420     3.683920    28.245810     8.375140     0.209420    25.359790     3.372470     5.986840    25.100600     8.956360     3.264180    22.778920    10.241820     2.084100    26.048530     6.995990     3.468010    22.647730     8.709780     5.016020    20.094900     5.181220     0.482720    13.536050     3.151060     0.390160    12.258900     3.963970     3.524590    29.121420     2.987850     3.713960    18.534750     4.461480     5.436010    19.987520     0.688150     5.058850    18.892630     1.762400     0.059010    15.363780     0.234310     6.774520    14.487320     8.489050     3.701390    23.966600     1.054560     6.335150    26.741810     9.535380     6.209000    28.176540     8.643320     3.086850    27.027470     9.323490     2.867140    24.817660     6.834010     4.236350    13.090940     3.369760     3.220040    14.127040     2.638160     6.452620    29.241680     2.792180     0.067800    27.873180     3.255500     0.477660    25.121490     6.971260     6.313920    26.310990     6.983330     0.064400    22.842670     4.693570     1.047190    23.604760     3.944330     2.719920    25.772850    10.761560     3.900260    25.216460    10.109210 