-1391.220100
-1391.109600
-1389.720600
-1393.821900
-1390.625700
-1392.106800
-1392.029500
-1391.282400
-1390.665900
-1391.078200
-1390.234500
-1389.051500
-1389.559400
-1388.580000
-1389.526500
-1391.186800
-1391.848300
-1389.900400
-1390.423600
-1390.865600
-1389.382900
-1390.926000
-1390.968100
-1391.988900
-1391.170100
-1392.298400
-1392.216200
-1391.855300
-1391.190000
-1391.249100
-1390.030800
-1390.696000
-1390.530300
-1392.216100
-1391.650800
-1392.145500
-1391.655300
-1391.788000
-1392.427600
-1391.535500
-1391.213700
-1392.186900
-1390.674100
-1391.545600
-1392.548600
-1392.613900
-1392.214100
-1389.835400
-1390.701700
-1389.759200
-1390.659500
-1391.676700
-1390.725700
-1391.699600
-1388.975400
-1388.615200
-1392.141800
-1391.140600
-1390.073900
-1390.947700
-1390.595300
-1390.539500
-1391.001400
-1390.924300
-1392.058600
-1391.667000
-1390.623300
-1390.795100
-1392.466600
-1391.681000
-1392.571700
-1391.049600
-1391.955000
-1391.983900
-1391.932500
-1392.581000
-1392.541900
-1390.228000
-1391.163200
-1392.469900
-1391.128100
-1392.717600
-1392.479500
-1391.766000
-1391.909300
-1393.535900
-1392.951200
-1391.983200
-1391.457100
-1391.325600
-1390.838300
-1390.905000
-1392.142700
-1391.134700
-1390.486600
-1391.813800
-1389.917400
-1391.151100
-1391.767600
-1391.079500
-1392.713300
-1391.550000
-1391.618500
-1389.957200
-1390.642600
-1392.268500
-1391.099400
-1392.034900
-1390.726500
-1391.966300
-1391.503500
-1390.848400
-1390.858000
-1391.047500
-1390.973000
-1391.199600
-1391.303400
-1392.118800
-1392.263900
-1392.462400
-1392.184500
-1392.097100
-1391.126500
-1391.298600
-1391.569000
-1390.412100
-1389.669900
-1391.723000
-1392.524400
-1392.074100
-1393.110100
-1392.206100
-1392.073600
-1391.586000
-1393.311000
-1392.271300
-1392.641600
-1392.472500
-1392.001900
-1390.968000
-1392.216300
-1391.749900
-1390.885300
-1392.646700
-1391.957900
-1392.844600
-1391.393000
-1390.991000
-1392.182400
-1390.672000
-1391.615800
-1390.965900
-1391.863100
-1391.256100
-1391.871600
-1391.600600
-1389.532900
-1391.887900
-1392.912300
-1390.323500
-1392.362600
-1391.148900
-1391.232000
-1391.924000
-1389.889400
-1392.958400
-1392.605900
-1392.087500
-1392.182700
-1390.207000
-1391.134800
-1391.474100
-1391.231700
-1391.472900
-1391.155300
-1391.122600
-1390.566200
-1392.109500
-1390.520600
-1390.891700
-1391.026700
-1392.443900
-1392.498900
-1391.094400
-1390.559500
-1391.500200
-1392.265000
-1393.152500
-1390.124900
-1391.066400
-1391.821800
-1391.348800
-1392.101300
-1391.485700
-1390.884200
-1390.424200
-1390.122200
-1390.773200
-1392.082200
-1391.256500
-1392.649500
-1390.734200
-1390.732100
-1392.179900
-1391.262400
-1391.842300
-1390.547900
-1392.077100
-1390.435700
-1392.130700
-1390.832600
-1391.453800
-1390.738800
-1391.958400
-1392.203600
-1391.549400
-1391.683800
-1390.755500
-1392.823100
-1391.394500
-1391.231800
-1391.798100
-1391.053500
-1392.134600
-1391.157400
-1390.979500
-1392.491000
-1391.530800
-1391.456900
-1390.838800
-1389.878600
-1389.367100
-1390.527500
-1391.409000
-1391.448000
-1389.912000
-1389.663300
-1390.128800
-1392.678400
-1390.615700
-1392.742900
-1391.438600
-1391.069000
-1391.056500
-1392.166100
-1391.022500
-1391.103800
-1389.837900
-1391.697700
-1392.241700
-1390.695900
-1392.540100
-1392.506700
-1391.562000
-1392.957800
-1390.201200
-1391.147500
-1389.830100
-1391.145000
-1391.019400
-1389.954000
-1392.210600
-1392.370600
-1391.204500
-1391.848500
-1392.065700
-1392.181000
-1392.140000
-1392.278400
-1391.852000
-1390.034500
-1390.534000
-1389.988400
-1389.564800
-1390.730000
-1391.140000
-1391.781000
-1391.033400
-1392.138500
-1390.039500
-1389.946600
-1389.945400
-1389.273600
-1392.586300
-1391.511400
-1391.032100
-1389.494400
-1392.003800
-1390.689100
-1391.633800
-1391.646300
-1391.566800
-1391.718300
-1391.040800
-1390.975000
-1393.010700
-1391.348200
-1392.150300
-1393.154000
-1391.672800
-1391.834800
-1391.792700
-1391.759100
-1392.063200
-1391.593800
-1392.305300
-1391.084800
-1391.917500
-1392.368700
-1391.286800
-1392.080000
-1392.283500
-1389.939200
-1390.120000
-1390.824100
-1390.778000
-1392.121400
-1392.139800
-1392.018800
-1392.057000
-1393.594100
-1392.806600
-1393.449600
-1393.222000
-1391.541200
-1391.566000
-1391.384900
-1392.754600
-1392.377600
-1391.612400
-1390.820100
-1391.810900
-1392.463300
-1390.258100
-1392.022700
-1391.548100
-1392.651400
-1390.237500
-1392.737400
-1392.838500
-1392.097100
-1391.382200
-1392.126300
-1391.949900
-1390.937900
-1390.703500
-1392.075700
-1390.718300
-1390.227700
-1391.646400
-1390.599100
-1390.483800
-1392.563700
-1390.609300
-1391.058600
-1391.557200
-1390.218100
-1392.085000
-1390.334600
-1391.678900
-1392.763900
-1388.994800
-1390.995600
-1393.151500
-1390.633100
-1392.259600
-1391.631300
-1392.026800
-1392.047500
-1391.662700
-1391.635600
-1391.988600
-1392.023300
-1391.060000
-1392.221800
-1390.303500
-1390.852400
-1392.423700
-1391.164100
-1392.415600
-1390.220600
-1391.169200
-1392.074300
-1389.422900
-1391.484200
-1391.833600
-1393.029900
-1392.196400
-1392.015000
-1389.873700
-1392.192800
-1392.567000
-1391.809900
-1393.431400
-1392.165300
-1392.489100
-1390.985300
-1391.200900
-1391.251800
-1390.685000
-1391.447500
-1391.924000
-1391.904600
-1393.814800
-1392.344100
-1391.469700
-1393.106400
-1392.676800
-1391.383300
-1390.415700
-1393.362400
-1389.955000
-1393.462000
-1393.215300
-1391.477800
-1391.535400
-1391.979400
-1391.476000
-1391.317100
-1391.876700
-1392.101600
-1392.370200
-1392.806100
-1391.043400
-1393.680500
-1391.919200
-1392.415800
-1392.781800
-1391.714000
-1391.615600
-1392.092400
-1392.461500
-1390.603200
-1392.738000
-1391.927700
-1391.328200
-1392.387500
-1390.122800
-1392.164600
-1389.790800
-1392.353100
-1391.493200
-1391.793000
