   -0.229204     0.144334    -0.314287     1.233452    -0.083908    -1.116844    -0.596657    -0.263294    -0.827514     0.122016    -0.542386    -0.063082    -0.499240     1.396688    -0.575727    -0.187550     0.432750     1.468260    -0.116556     0.258073    -0.081552     0.481367     0.260378     1.132377    -0.447016    -0.380893     0.184014     0.349955    -0.529895     0.148448     0.233624    -0.760259    -0.064667    -0.875395     0.314216     0.054639    -0.678809    -0.690516    -0.033130     0.342125     0.126959     1.103061     1.127758    -1.336312     0.919089     0.183776     0.433222    -0.122104    -0.446695     0.570518     0.080326     0.764238     1.570780     1.051098     0.194453     0.625948     0.849335    -0.457232    -1.100436    -0.285292    -0.379750     0.854714     0.687428    -0.217605    -0.052943    -0.858511    -0.674616    -0.222847     1.121864     0.044916    -0.477993    -0.054259     0.566198     0.146243    -0.359589     0.413473     0.223201     0.086039    -0.314249     0.407532    -0.276272    -0.453214    -0.260783     0.451381    -0.134448    -0.429585    -0.204184     0.260367    -0.139735     0.081693    -0.316323     0.547511     0.925920    -0.163910     0.461508    -0.559045     1.038371     0.568990    -0.395078    -1.005475     0.237391    -0.466806     0.324960    -1.560696     0.034933     0.042275    -0.238249    -0.720471     0.322485    -0.608873    -0.367999     0.837642     0.931038    -0.227982     0.838647    -0.780808     0.039776    -0.181685    -0.536864    -0.829236    -0.416161     0.023270     0.218384     0.050540    -0.601541     0.555017     1.140601    -0.270065    -0.077409    -0.174019     1.248697     0.513158    -2.113801     0.007632    -0.498834     1.619320    -2.312504    -2.101800    -0.174759     0.780735    -0.550413    -1.440709    -0.063330     0.023266     1.115203    -0.288589    -1.936979    -0.016844     0.053635    -1.144229     0.185033    -0.848417     0.095967    -0.405966    -0.656880     0.545895    -0.870104    -0.094330    -0.250211     1.169391     1.026560     0.102578     0.030644     0.405491     0.225259    -0.579583    -0.717476    -0.162617    -0.141198    -0.442809     0.568459    -0.830297    -0.664253     0.652159    -0.120364     0.212741    -0.303057     0.789852     0.617964     1.267676     0.099035    -1.082946     1.092581    -0.518182    -0.242564    -1.762278     0.073624     0.184385    -1.213113    -1.421105    -1.196273     1.541556    -0.373057     2.478662     2.685196    -0.802678    -0.531280     0.395092    -0.086005     2.345171    -2.192347    -0.203765     0.965745    -0.257609     0.805995    -0.856729    -1.482498    -0.109453     1.865115     1.640432    -2.931309     0.598537     0.129639     0.216563    -1.438774    -0.156046     0.314437    -0.404143    -0.616147     0.472205    -0.885835     1.703762     2.031913     3.523156     0.297095    -0.465819     0.797048     0.889463    -0.356854     0.862799     0.426653    -1.405603    -0.820723    -0.345641     1.360393    -0.284486     0.591588     0.045901     1.161620     0.766907    -2.012544     1.209715     0.146996    -0.953555    -0.046271    -1.078280     2.137154    -0.844763    -0.896971    -1.098556     0.583293    -0.968471    -1.317607    -2.689765    -0.483999    -0.252649     0.805674    -0.756712    -0.422786    -0.809821    -1.504429     1.563069     1.014614    -0.273983    -0.741189    -0.221997    -0.595887     0.362102     0.830829     0.383155    -0.147837    -1.141390     0.422732    -0.596003    -0.367802     0.793638     0.069948    -1.083184     1.173944    -0.614097     1.361149     0.782082    -1.267096     0.971297    -1.095731     1.998041    -1.013496     1.511136    -1.650692    -2.597143    -1.242628     0.241382     0.611065     0.342963    -1.282213     1.175992    -2.943195     0.420386     0.062639    -0.311289     0.399458     0.541961     0.440908    -0.396295     0.630840    -0.806346     0.219632     0.775051     0.561233    -0.091343     0.059059     0.326967     0.244883    -0.519491     1.139599     1.108829     0.983511    -1.885866    -0.140273     0.168306     0.080347    -1.041616     0.538234    -0.282036     0.154168    -0.484838     0.586479     1.120506     0.594969    -0.379887    -0.143182    -0.388920    -0.351244     0.404970    -0.804289     0.606132     0.023928    -0.662792     0.194996     0.037725     0.182758     0.454146    -0.127496     0.164084     0.263841    -1.065475     1.442525     1.233155    -0.457696     1.057403    -0.023205    -0.491349    -0.244872    -1.507974     0.647797    -0.305112    -0.133957     0.526636    -1.617977    -0.013807    -0.139817     0.464937     0.306894    -0.136471    -0.358146     0.634668     0.216597     1.664010    -1.123615    -0.633405    -0.805855     0.183020     0.373230    -0.392005     0.290561     1.098732     0.555642    -0.185268    -0.221206     0.540563     0.564229     0.553683    -0.644240    -1.021910     1.515710     0.684306     0.008303     0.747460    -1.335048     2.093927    -1.158452    -0.353664     0.128467     0.457717    -1.659088    -0.504708     1.644330    -0.455493    -0.273641    -1.860984     0.275224    -0.379500    -0.151820     0.779497    -0.220888     0.465729    -0.698837     0.872282     0.661319    -1.113274     1.494939    -0.437646     0.579697     1.195182     0.735948     1.418725    -0.336253     0.630582     0.324467     1.080640     0.362166    -0.174194     0.713497    -0.338231    -0.569028     0.114563     0.534489     1.841889    -0.096936    -0.437545    -0.546978    -0.043799    -1.139808    -0.526059     0.092452     0.305878     0.305748     0.173947     0.602645     0.803478    -0.147136     0.085025     0.471150    -0.630308     0.217463     0.453924    -0.274321    -0.267333    -0.085108    -0.512781     0.142841    -0.025832    -0.610523     0.083442     0.431662     0.074526     0.344084    -1.114705    -0.360708     0.393745    -0.249014     0.568233    -0.222120    -0.647724    -1.020433     0.407966    -0.786198    -1.021388    -0.177267    -1.452006    -0.485591     2.512409    -0.875211     0.361424    -1.096559    -0.117913     0.361343    -0.904410    -3.057586    -0.895999     0.272959     0.572942    -0.353669     0.142491     1.754429    -0.447004    -0.121212    -1.231482     0.451640     1.042356    -0.141697    -0.030853    -0.798494    -0.650002    -0.150625    -0.117415     0.266139     0.395786    -0.036208     0.773111    -1.342743     1.312891     0.083973     0.377536    -0.304908     0.033159     0.422807    -1.308980     0.835571    -1.040231    -0.380560     0.280838     0.633671     1.720423    -0.113186    -0.853342    -0.135996     2.338267     1.876666    -0.908894    -0.374324    -0.003160     0.596454    -0.605125    -0.765180    -0.815303    -0.894403    -0.633852     1.791737    -0.370711     2.894003 
   -0.122138     1.365836    -0.169797     0.853910    -0.000528    -2.073412     0.626366    -0.584119    -0.808792    -1.118484     0.831894    -0.490298     0.121621     1.114157    -0.576490     0.569779     0.752769    -1.452798     0.925670    -0.388121     0.460490    -1.140703     0.707656    -0.452492     0.442402    -0.115794    -0.326412    -0.250126     0.112865    -0.024806     0.184969    -0.594746     0.530768    -1.254843    -0.452525    -0.339825     0.000764     0.306368    -0.306010    -0.557444    -0.393258     0.629087    -0.535007    -0.504847     0.248999    -0.087084    -0.866532     0.876596     0.399962    -0.157959    -0.754253     0.213206     0.049806    -0.660751     0.721890    -1.434837     0.686069     0.006172     0.960615    -0.295282     0.676404     0.871528     0.797389     0.444395    -0.971399     0.398278     0.470236    -0.148174    -0.132935    -0.865634    -0.221077     0.450668     0.777406    -0.227221     0.438828     0.473418    -0.563450     0.447336    -0.324969    -0.607810    -0.905173    -0.913058     0.150549    -0.694767     0.381594    -0.223048     0.711020     1.495235     0.590463    -0.884514     0.381196    -0.161640     0.096475     0.098396     0.296329    -0.598830     0.303930    -0.518005    -0.341299    -0.940345     0.025211    -1.870704     0.455026    -0.271520    -0.712039     0.132026     0.184121     0.123573     1.864137    -0.707958     0.438159    -0.133643    -1.093531     1.243122    -0.581685    -0.818603    -0.675121     0.904625    -0.369250     0.490836    -0.393534    -0.688863     0.503093    -0.201353    -0.023582     1.505351     1.245087    -0.349594    -0.391492     0.101909     0.383478     1.004106     1.445177     1.000728     1.143233    -1.324792    -0.271831     0.952984    -0.247789    -0.718457     0.326985    -0.064153    -0.572293     1.369097    -1.077948     1.495830    -0.600163     0.766048    -0.436535    -0.488023    -0.755769     0.112368    -0.167896    -0.134778     0.209680    -0.363438     0.568497     0.083781     0.193491    -0.942651     0.202558     0.054116    -0.242750     0.910888    -0.635015    -0.332689     1.331847     0.240032    -0.871004     0.662903     0.450362    -0.184172     0.251032    -0.468533     0.409147     0.982698     0.216972    -2.143577    -0.484314     0.879945    -0.464789    -0.040291     1.207939     0.397082     1.800675    -0.525583    -0.392811     0.703201     1.100810     1.415713     0.781313     0.022400    -1.395162     0.529662    -0.462643     1.885866    -1.910184     0.823122     0.339838     0.843938    -0.031130     1.648840     1.026462     0.004124     1.980471    -1.752211    -0.696845    -0.321264     0.717431    -1.327204     0.017649    -0.629715     0.734447    -2.474729    -0.331720     0.813129     0.861872     0.137493     0.826428    -0.585807     0.877213     0.062156     0.306214     2.368743    -0.349057     0.401891     1.172271     0.641726     0.927625    -0.922440     1.516624     1.385952     2.509742     0.415809     0.499336     0.362548     0.013818     2.762301    -3.088191    -0.608437     1.875274     1.112908    -1.989955     0.225548     1.387951    -1.329912    -0.782458    -1.235945    -0.754278    -0.342676     0.171249    -0.198201     1.000647     0.490722     0.260623     1.176550     1.743005     1.272027     0.190775     1.423105     1.990978     0.112856     0.487935    -1.398341     0.374237    -2.374764    -1.229564     0.082671     0.376930     1.024104    -0.220361    -1.921714     1.373915     0.684446    -0.942260     3.093161     0.480111     0.415982    -0.213568     0.826533    -0.068571    -0.800066    -0.122217    -0.074928    -1.843571    -1.509373    -0.373071     1.136297    -0.381680     0.684855    -0.555621    -1.934214     0.072082    -0.674469     0.519092     0.944009    -0.630162    -0.517317     0.579358    -0.215820    -0.960028    -1.218398    -0.630923     1.287314    -0.425225    -0.892571     0.244074    -1.009965     0.110137     0.192113    -0.370592    -0.526787    -0.801813    -0.718968     0.273474    -0.474813     0.583266     0.485824    -0.233853     1.417869     0.229039    -1.294587     0.247439    -0.901630     0.851378    -0.841175     0.236788    -1.589141     0.629161    -1.040438    -0.978079    -0.502823    -0.300610    -1.312034    -0.531293    -0.073360     0.059790    -0.843827    -0.900693     0.921155    -1.113503    -0.811985    -0.600339     0.369669     0.186087    -1.931338     1.991942     1.232754     1.680842     1.267601    -0.206294     0.106187     0.442457    -0.838246     0.369897     0.608338    -0.832585     0.123090    -0.889768     2.153853     0.090958    -0.424471    -0.998723    -0.536839    -0.041886     1.223490     0.242501    -0.513368     0.058289     0.102207     0.042153    -0.353999    -0.568260    -0.486218     0.118007    -0.211422     1.627479     0.897429    -0.498048    -1.988938    -0.406201    -0.129224    -0.864555    -0.791028    -0.796133     0.375453     0.286338    -0.340593    -0.669557     1.845537    -1.419481    -1.057760     0.841657    -1.260744     2.348676     1.658186    -2.357800    -0.699558     1.822568     0.815310     0.498656     1.424182    -0.111474    -0.410217    -0.171916     0.419358    -0.020882    -0.039180    -0.178838     0.728031     0.474213     0.517353     0.839807     0.251140    -1.010625    -0.330647    -0.696818     0.045985    -0.878308    -0.976432    -0.784772    -0.904615    -1.295390    -0.352920    -0.504715    -0.103575     0.380099    -0.227775     0.274424    -0.435901    -0.300957     0.231279    -0.090512     0.170434     1.151281    -0.484561    -0.723115    -0.769908    -0.092999    -0.092128    -0.148708     0.253417     0.118174    -1.384670    -0.076419     0.353112    -2.401187    -0.467042     0.493320    -2.442709    -0.879228    -0.414915     0.794798    -0.261883     0.081644    -0.054995     0.099824    -0.302977     0.019081    -0.507447    -0.555211    -1.304748     0.919318    -0.121306    -0.106068    -0.026140    -0.284376     0.711419    -0.237990    -1.224976     0.422624     0.011086    -0.344046     0.306940    -1.019745    -0.941203     0.328385     0.646711    -1.481844    -0.069974     0.603588     0.727944    -0.766530    -0.286616    -1.013285    -0.525710    -0.399354     0.775315     0.445860    -0.348083     1.003028    -0.314158    -0.168021    -0.514050    -0.358673     0.380747     1.241701    -0.230027    -0.057905    -0.339768     0.077142    -0.159285    -0.152427     0.703045     0.157146     0.313263     1.071953     0.028596    -0.056163    -0.094046     1.439337     0.058764    -0.814285    -0.950705     0.342443    -0.029319     1.589625    -0.958817    -0.066024    -0.401896    -0.191254    -0.324944     2.123081     0.524001     1.336920    -0.330100    -0.155140    -0.579824     0.059937     0.374505     1.146442 
   -0.793082     1.139094    -0.277010     0.289977     0.311359     0.747040     0.489788     0.284896     0.007666    -0.944721     0.574734     0.253586     0.069784    -0.508127    -0.339096    -0.212901     0.030808     0.031396    -0.431737    -0.705926    -1.170506    -0.746660     1.117021    -0.759392     0.361975    -0.839039    -0.123758    -0.083810    -0.515792    -0.414182     0.127875    -0.251807     0.393025    -0.268064     0.303391    -0.436791     0.286979    -0.217833    -1.446330     0.248884    -0.043461    -1.201485    -0.144702    -0.052626    -0.959316    -0.444906     0.765442    -1.007373     0.817112    -0.607332     0.364575    -0.005975    -0.618084    -0.325143     0.365747    -0.746328    -0.066982     0.228779     0.660916    -1.009832    -1.267558    -0.091237    -2.626407    -0.017576    -0.251391    -0.715103     0.147454    -1.640135    -1.158492    -0.267593     0.059258     0.478246    -0.330494    -0.004510     0.715737    -0.380466     0.031771     0.771574    -0.930710     0.058333    -0.001139    -0.835013     0.625686    -0.812263     0.128333     1.035089    -1.072306    -0.195671    -1.472698     0.553545    -0.202623     0.055954    -0.800512    -0.157230     0.044994    -0.039438    -0.009325    -0.272038    -0.160940     0.322610     0.512556     0.071355    -0.049092    -0.550741    -0.066470    -1.082868    -0.608060    -1.138786    -0.230517     0.039835     0.302709     0.251400    -0.137469    -0.568074     0.719942    -0.661515     0.466673     1.350731    -0.616941    -0.472383    -0.939355    -0.202704     0.667826     1.415686     1.060747     2.232549     0.676155     0.982859     0.840205    -0.295465    -0.576165     0.525389     0.304187    -0.638630     0.229403    -0.528896     0.058395     0.683775     1.045645     0.905775     1.128066     0.661891    -0.878788     0.680482    -1.063387     1.253860     1.209642    -0.312924    -0.369235     0.590626    -0.488603    -0.733507     0.259687     1.418008    -1.511586     1.357533     0.041632     0.840676     1.005729    -0.215147     0.920790     0.913394     1.623767     1.361035     0.626222    -0.640619     1.352673     0.628451     2.413855    -0.085809     0.474051    -0.786440    -0.572911     0.574162    -1.346951    -0.310449    -0.070660     0.839615    -0.052055    -0.256110     0.720066    -0.698409     0.265837    -0.765381     2.450209     0.853723     2.441805     0.691895     0.183289     1.461622    -2.683901     0.411253     0.458568    -1.120474     1.322805    -3.067243     0.798756    -0.836736     0.522084     0.499005    -0.399722    -1.051505     0.381250    -2.637683    -1.448089    -0.041875     0.365189     0.440204     0.542881     0.643816    -0.141816     0.945201    -0.955561     1.806743     1.264436    -0.353330     0.737931    -0.080202    -0.533797    -0.474076    -2.203631    -0.241749     0.571073     3.184939    -1.518412     1.091451     0.194122     0.878152     1.122668     0.662958     0.318986    -0.759882     0.015512     1.286932     0.073444    -2.538816    -0.639954     1.104137    -2.340409    -0.176931     1.024016    -2.744079     0.450434     1.753178     0.488619    -0.609733     0.758482     1.204605     1.636842    -0.466958     1.256074    -1.140903    -0.270476     0.320936     1.646034     0.011746     2.123899    -1.726890    -1.766555     2.450201    -1.911796    -0.614531    -0.531509    -1.340518    -0.537226     2.697133    -2.118061    -0.058265    -0.238928     0.173330     0.180428     1.026935    -0.955099    -1.681358     0.792455    -0.247195    -0.896390    -0.984926    -1.018974     1.992978     1.693214    -0.515851    -0.198590     1.669012     1.016857    -0.332411    -0.706942    -2.086631     1.083103    -1.203014     0.288907     1.592289     0.101347    -0.617377     0.577074     0.145820    -0.245790    -0.783488    -0.719850    -0.675763    -0.467498     0.414921    -0.604877    -0.442332     1.047329     0.263604     0.538199    -1.796135     0.098828    -2.410873     0.062058    -0.011248     0.311028    -0.289799    -0.877667    -1.500348     1.761484    -0.416718     1.791197    -0.188750     0.170585    -0.534150     0.053572    -0.088724    -0.136261     0.508997     0.274264     0.710990    -0.000345     0.616770     0.529797    -1.323047     0.516881     0.421781     0.594602     2.204282     0.547583    -0.422423     0.615933    -1.410470    -0.544424     0.430600    -0.810605     0.048020     0.790567     0.770019     0.544006    -0.844948     0.062658    -0.451541    -0.027584    -2.204666    -0.599603    -0.304947    -0.079655    -0.992561     1.065432     1.475310     0.400642    -0.078821     0.192231     0.087157    -0.031305    -0.382872    -0.129426    -0.388611    -0.493643     1.566008    -0.137579     0.771641     0.571977     0.159418     0.013497    -0.208438    -0.601517     0.726545    -2.571151     2.239201     1.247795     0.222562    -1.284378    -0.714087    -0.262668     0.103793    -0.182915     0.241545    -0.599682    -1.317110     0.232854     0.873341    -0.114104     1.559595    -0.313635    -0.821025     2.368454     0.182242    -0.800778     2.135810    -0.499008     1.339798    -0.433381    -1.604784     0.352883    -1.368255     1.487921     0.724174     0.458808    -0.107233     0.438511    -0.698186     0.923763    -1.790875    -0.883823     0.188775     0.212235    -0.105418    -1.410781     1.848174    -1.025944     0.365512    -0.288639    -1.693141     0.608076    -0.510549     0.595008     1.083948     0.043019    -0.310282     0.221073     0.321769    -0.195761     0.806506     0.867471    -0.194290     0.223910    -0.241360    -0.838840     1.543377     2.028616    -0.985743     0.486213     0.030820    -0.476626    -0.560183    -0.572453    -0.292941     0.292986    -0.548014     0.281594    -0.361388    -1.627566    -1.358982     0.727161     0.295995    -0.956120    -0.333645    -0.209881    -0.050323    -0.218834    -0.157431    -0.073903     0.154972     0.379419    -0.254554    -0.982828    -0.533834     1.221445    -1.008096    -0.644270     0.574236     0.464836     0.025729     0.049816    -0.574159    -1.087894    -0.750588     0.279537     0.708667    -2.835244     0.892933     0.327558     0.799386     1.504378    -0.899560    -0.576876     0.176241    -0.204512    -0.204371    -0.270072     0.046823    -0.454075    -0.424002    -0.031815     0.162421    -0.410227    -0.709056    -1.700784     0.177021     0.795483     1.723764     1.176767     0.145827    -0.237438    -0.096998     0.444509    -0.711827    -1.179439     1.351891    -0.774320     1.333659    -0.555760     1.135490     1.123232    -1.752647     1.128601     0.304301     0.287895     0.175422    -0.082046    -1.047886     0.256816     0.757928    -0.444743    -0.072200     0.279146    -0.859076    -0.278068     0.151176     0.206094    -0.219259    -0.131084 
   -0.039072    -0.112795     0.833893    -0.294891    -0.377225    -0.257895    -0.019467    -0.444120    -0.423020     0.418763     0.184742    -1.407951    -0.152910     0.078783     0.653414     0.404790     0.348284     0.327146     0.734403    -0.310637    -0.564425    -1.436242     0.512921     0.302209    -1.019705     0.727357    -0.329081     0.165393     0.788314    -0.403554    -0.018743     0.532915     0.504024    -0.348808    -1.430591     1.414962     0.170552    -0.648173     0.105489     0.027660    -0.545338     1.116106    -0.060131     0.175510     0.517564     0.141516     0.474443     0.129740    -0.103091     0.139235    -0.750234    -1.075364     0.010489     0.156964    -0.928851     0.407386    -1.099149    -0.063689    -0.219284     0.211241    -0.570644    -0.757374    -0.266052     0.163841    -0.635709     0.341781    -0.706905     0.813432     0.035704    -0.208900     0.394798     0.101178    -0.248406     0.414644    -1.050481    -0.500611     0.439432    -0.122609    -0.768719    -1.011296    -0.382398     0.342020     1.074441    -0.740633     0.046004     0.628472    -0.270529     0.607284     0.177098    -0.544700    -0.571750     0.333618    -0.055309    -0.142541     0.533703    -0.043470     0.934061    -1.123497     0.141053     0.889756    -0.807875    -0.145164    -0.194250     0.978418     0.757868    -0.214539    -0.362742     0.727815     0.502761    -0.182627    -0.440926     0.836801     0.259291    -0.044454    -0.544627    -0.785283    -0.178326    -0.762344    -0.943286     0.195041     1.748250     1.815357    -0.622468    -0.869162     0.408107    -2.000807    -1.682733     0.371385    -0.483150     1.242796     1.123979    -0.139855    -0.512589     0.186935     0.062342     0.726770     0.482782     0.302387     1.264471     0.164896    -0.167379     0.225278    -1.009647    -0.040599     0.321299    -0.099478     0.641163     0.865720    -1.803581     0.684718    -0.053155     0.448995    -0.690831     1.437951     0.459146     0.186256    -0.144977    -0.334393    -0.403544    -1.091217    -0.148269    -0.285277     0.611236    -0.688063    -0.239319     0.099281    -0.254044     0.469677    -0.938877    -0.461203     1.191546     0.844441    -0.458484     0.943197     1.418060     0.169538     0.093430    -0.384146    -0.068944     0.003136    -0.512295     1.600416    -1.950951     2.055852     1.657747     1.448265    -0.805736    -0.455953     0.165886    -0.371886     0.429216     0.078345    -0.190976     0.272616    -0.030473     0.995245    -0.183268    -0.299026     0.649673    -1.465348     1.048783     0.141376     0.228847    -2.485603     0.233403    -0.821135     0.242290    -0.129630     2.317011    -0.021017    -0.167816     1.172757     0.759045     2.081619     1.028980    -0.295921    -0.953646     0.365696    -1.780966    -0.525982    -2.260877     1.168429     0.684570     1.770900    -1.070555     0.643278    -0.164609    -1.107387     1.354744    -1.302349     1.590194    -0.980864    -0.185027     0.795612     0.763995    -1.580763    -2.205115     1.992975     1.886361    -2.325073    -0.487789     0.470119    -1.324221     0.476292     1.673313     1.155111     2.084841     1.298234    -1.097206    -1.984614     0.737864     1.454164    -0.115349    -0.145378    -1.051850    -0.216848     0.786396     0.528341    -0.975902    -0.703536    -0.059611    -0.379794    -0.171476    -0.238494     0.898636     1.302991    -0.665172    -0.149336     1.063911    -1.221817     1.221927     1.611963    -1.566974     0.241592     0.267609     0.350855     0.185671    -1.233719    -0.470341     0.405273     0.428326     0.205892     1.353164    -0.022211     0.072895     0.094740    -1.184580     0.576523     0.733994    -3.054962     0.730362    -2.037565    -0.783581     0.393959    -1.166470     0.319551    -0.117621    -0.242086    -0.771546     0.357539    -0.065997    -0.128216     0.078357     0.892090    -0.556051     1.183562    -1.428945    -1.405543     0.141796    -0.132882    -0.596427     0.216240    -0.754140    -0.068413    -1.501289     0.598049    -0.101139     0.057260     0.646044    -0.109643    -1.067058     0.039149    -0.011662     1.760688     0.500784    -0.368625     1.223829    -1.117161    -0.059994     1.181858    -0.229122    -0.206798     1.030864    -0.086030    -0.006683     0.953385    -0.320837    -0.200531     0.131665    -2.135692    -1.047728     0.326807     0.070182    -0.048865     0.710928    -0.117094     0.673295    -0.111024     0.370704     0.301480    -0.341364    -0.203844    -1.254310     0.549565     0.136295    -0.774639     0.923516    -0.247268    -1.243042    -0.421959     0.893293    -0.105438     0.608446    -0.124655     0.225678    -1.789161     0.100439     0.394381    -0.194660     0.273149     1.872195    -1.259086    -0.319702    -0.490949     0.080208    -0.172592    -1.044960     1.007140     0.778979     0.211765    -0.556440    -0.189847     1.123350     0.835511    -0.335929     0.249371     0.089106     0.068669     0.182448    -0.808398     0.061411     0.177091     2.056364    -1.993064    -1.271395     1.049997     0.146150     0.073081    -0.273778     0.133284    -0.907447     0.215603     0.969292     0.080052     0.071842     0.449508    -0.053121    -1.027574    -0.808887     1.255391     0.133838    -2.126741    -0.429629     0.823837    -0.324162     0.077157     0.438595    -0.156753    -0.936499    -0.324611     0.399539    -0.874800     0.338786     1.327070     0.440406     0.357929     0.108573    -0.451096     0.246240    -0.232500    -0.225499    -0.792274    -0.638658    -0.775460     0.182930     0.984316     1.617532     0.136940     0.204670    -0.282451    -0.000579    -0.634948    -0.675166     1.631027    -0.788303     1.211103     0.322395     0.039905    -0.324126    -0.546546    -0.368214    -0.372055    -0.382437    -0.079107     1.874128     0.557106    -0.151394    -0.170821     0.313806     0.807158     0.705703     0.498477     0.034870     0.318869    -0.306005     0.042719    -0.421652     0.220742     0.148331     0.236567    -0.571363     0.110480    -0.811561    -1.638206     0.363290    -1.338857     0.657676    -1.197520    -0.448110     0.137270    -1.000280     1.303071     0.207428    -0.242286    -1.118914     0.419481    -0.599641    -0.307535    -0.255321    -0.503866    -0.223037    -0.137822     0.245790    -0.958789     1.053315    -0.240118    -1.429153    -0.061545     0.181393    -0.690798     0.018875    -1.410733     0.111369    -0.505683    -0.231000    -0.328779     0.060195    -0.165721     1.252431    -0.549300     0.006153     0.294813     1.280345    -0.591554     0.245559     0.026559    -0.389329     2.502809    -0.814436    -0.611193     0.373514    -0.306978     2.815835     0.446500    -0.087974    -0.960360     0.044513     0.139691     2.063124    -0.454612    -0.349703 