10.3310194176568011 0.0000000000000000 0.0000000000000000 5.1655091131342896 8.9469256066441609 0.0000000000000000 0.0000000000000000 0.0000000000000000 17.4836899265487347
10.2867928527894730 0.0000000000000000 0.0000000000000000 5.1433958332507190 8.9086242764743400 0.0000000000000000 0.0000000000000000 0.0000000000000000 17.4088431456652017
10.3156027601160112 0.0000000000000000 0.0000000000000000 5.1578007852527739 8.9335743890590269 0.0000000000000000 0.0000000000000000 0.0000000000000000 17.4575995622534244
10.2899948759212254 0.0000000000000000 0.0000000000000000 5.1449968446320282 8.9113973099567652 0.0000000000000000 0.0000000000000000 0.0000000000000000 17.4142620861695789
10.3372149523578187 0.0000000000000000 0.0000000000000000 5.1686068801275349 8.9522910972917025 0.0000000000000000 0.0000000000000000 0.0000000000000000 17.4941749332324221
10.2881498454161697 0.0000000000000000 0.0000000000000000 5.1440743294856812 8.9097994666065770 0.0000000000000000 0.0000000000000000 0.0000000000000000 17.4111396507201945
10.2812486539886674 0.0000000000000000 0.0000000000000000 5.1406237341699574 8.9038228592843431 0.0000000000000000 0.0000000000000000 0.0000000000000000 17.3994604266115971
10.2358698914099122 0.0000000000000000 0.0000000000000000 5.1179343554971197 8.8645236965882468 0.0000000000000000 0.0000000000000000 0.0000000000000000 17.3226637251334807
10.2872628368664323 0.0000000000000000 0.0000000000000000 5.1436308252619023 8.9090312946406822 0.0000000000000000 0.0000000000000000 0.0000000000000000 17.4096385227265991
10.2974703923759563 0.0000000000000000 0.0000000000000000 5.1487346024280614 8.9178712973621721 0.0000000000000000 0.0000000000000000 0.0000000000000000 17.4269132686378114
10.2621507996543713 0.0000000000000000 0.0000000000000000 5.1310748081036159 8.8872836316376453 0.0000000000000000 0.0000000000000000 0.0000000000000000 17.3671401927667937
10.2944915095261909 0.0000000000000000 0.0000000000000000 5.1472451611746921 8.9152915090397737 0.0000000000000000 0.0000000000000000 0.0000000000000000 17.4218719593566327
10.2628454382480196 0.0000000000000000 0.0000000000000000 5.1314221273603629 8.8878852063293081 0.0000000000000000 0.0000000000000000 0.0000000000000000 17.3683157636652545
10.2586530783128698 0.0000000000000000 0.0000000000000000 5.1293259476345288 8.8842545159841144 0.0000000000000000 0.0000000000000000 0.0000000000000000 17.3612208277055799
10.2843955816968347 0.0000000000000000 0.0000000000000000 5.1421971978419343 8.9065481787279914 0.0000000000000000 0.0000000000000000 0.0000000000000000 17.4047861264332759
10.3046833050124729 0.0000000000000000 0.0000000000000000 5.1523410583299745 8.9241178631797382 0.0000000000000000 0.0000000000000000 0.0000000000000000 17.4391200338074270
10.3014324394657617 0.0000000000000000 0.0000000000000000 5.1507156257440911 8.9213025309239349 0.0000000000000000 0.0000000000000000 0.0000000000000000 17.4336184348931909
10.2950228652677556 0.0000000000000000 0.0000000000000000 5.1475108390146538 8.9157516766276057 0.0000000000000000 0.0000000000000000 0.0000000000000000 17.4227711986903309
10.2952510082206388 0.0000000000000000 0.0000000000000000 5.1476249104779841 8.9159492542283250 0.0000000000000000 0.0000000000000000 0.0000000000000000 17.4231572961789070
10.3093447120087696 0.0000000000000000 0.0000000000000000 5.1546717615594488 8.9281547602112195 0.0000000000000000 0.0000000000000000 0.0000000000000000 17.4470087610720270
10.3233909037256488 0.0000000000000000 0.0000000000000000 5.1616948566079719 8.9403191195321288 0.0000000000000000 0.0000000000000000 0.0000000000000000 17.4707798189607288
10.2691801940702074 0.0000000000000000 0.0000000000000000 5.1345895049062076 8.8933712660088524 0.0000000000000000 0.0000000000000000 0.0000000000000000 17.3790363810689286
10.2915307586942077 0.0000000000000000 0.0000000000000000 5.1457647859294795 8.9127274235063272 0.0000000000000000 0.0000000000000000 0.0000000000000000 17.4168613357776891
10.2249065586843049 0.0000000000000000 0.0000000000000000 5.1124526897661982 8.8550291715730935 0.0000000000000000 0.0000000000000000 0.0000000000000000 17.3041099404417658
10.2879137322444052 0.0000000000000000 0.0000000000000000 5.1439562729133392 8.9095949865949198 0.0000000000000000 0.0000000000000000 0.0000000000000000 17.4107400648393984
10.2351884268886995 0.0000000000000000 0.0000000000000000 5.1175936232758588 8.8639335309793008 0.0000000000000000 0.0000000000000000 0.0000000000000000 17.3215104493631173
10.2741322815139036 0.0000000000000000 0.0000000000000000 5.1370655483427798 8.8976598997026848 0.0000000000000000 0.0000000000000000 0.0000000000000000 17.3874170410831503
10.3249307689439167 0.0000000000000000 0.0000000000000000 5.1624647891287010 8.9416526819822675 0.0000000000000000 0.0000000000000000 0.0000000000000000 17.4733858082549496
10.2713342854195933 0.0000000000000000 0.0000000000000000 5.1356665504567705 8.8952367639124184 0.0000000000000000 0.0000000000000000 0.0000000000000000 17.3826818553134999
10.2725089522017257 0.0000000000000000 0.0000000000000000 5.1362538837801655 8.8962540552258087 0.0000000000000000 0.0000000000000000 0.0000000000000000 17.3846698014152992
10.3263673397761462 0.0000000000000000 0.0000000000000000 5.1631830744617639 8.9428967888652693 0.0000000000000000 0.0000000000000000 0.0000000000000000 17.4758169874023395
10.3449100708019355 0.0000000000000000 0.0000000000000000 5.1724544389054943 8.9589552656065354 0.0000000000000000 0.0000000000000000 0.0000000000000000 17.5071977588964707
10.3305350576956059 0.0000000000000000 0.0000000000000000 5.1652669331813463 8.9465061385984637 0.0000000000000000 0.0000000000000000 0.0000000000000000 17.4828702204733410
10.3132876423748190 0.0000000000000000 0.0000000000000000 5.1566432265158175 8.9315694382068394 0.0000000000000000 0.0000000000000000 0.0000000000000000 17.4536815751601182
10.2746977517968539 0.0000000000000000 0.0000000000000000 5.1373482834519599 8.8981496113523200 0.0000000000000000 0.0000000000000000 0.0000000000000000 17.3883740141257768
10.2690632799907871 0.0000000000000000 0.0000000000000000 5.1345310478737733 8.8932700154438287 0.0000000000000000 0.0000000000000000 0.0000000000000000 17.3788385216465073
10.2917396233735605 0.0000000000000000 0.0000000000000000 5.1458692182575385 8.9129083056328398 0.0000000000000000 0.0000000000000000 0.0000000000000000 17.4172148076979845
10.2479944051591438 0.0000000000000000 0.0000000000000000 5.1239966116727542 8.8750238339087151 0.0000000000000000 0.0000000000000000 0.0000000000000000 17.3431826333201116
10.2865605531459590 0.0000000000000000 0.0000000000000000 5.1432796834424286 8.9084230990754882 0.0000000000000000 0.0000000000000000 0.0000000000000000 17.4084500136051972
10.2667830589287998 0.0000000000000000 0.0000000000000000 5.1333909374741813 8.8912952860017302 0.0000000000000000 0.0000000000000000 0.0000000000000000 17.3749795919131174
10.2393983106709214 0.0000000000000000 0.0000000000000000 5.1196985649242333 8.8675793974226131 0.0000000000000000 0.0000000000000000 0.0000000000000000 17.3286350417874964
10.2624592570716384 0.0000000000000000 0.0000000000000000 5.1312290367946964 8.8875507636084450 0.0000000000000000 0.0000000000000000 0.0000000000000000 17.3676622103548866
10.2734744751516107 0.0000000000000000 0.0000000000000000 5.1367366451995551 8.8970902226607063 0.0000000000000000 0.0000000000000000 0.0000000000000000 17.3863038031734369
10.2587069086438909 0.0000000000000000 0.0000000000000000 5.1293528627969085 8.8843011344211735 0.0000000000000000 0.0000000000000000 0.0000000000000000 17.3613119274098437
10.2385692735717519 0.0000000000000000 0.0000000000000000 5.1192840464219653 8.8668614302058018 0.0000000000000000 0.0000000000000000 0.0000000000000000 17.3272320217173785
10.2523385224396932 0.0000000000000000 0.0000000000000000 5.1261686700620732 8.8787859499752155 0.0000000000000000 0.0000000000000000 0.0000000000000000 17.3505343956652247
10.2933550705712946 0.0000000000000000 0.0000000000000000 5.1466769417628120 8.9143073239982495 0.0000000000000000 0.0000000000000000 0.0000000000000000 17.4199487080769551
10.2733470652010475 0.0000000000000000 0.0000000000000000 5.1366729402312892 8.8969798824023236 0.0000000000000000 0.0000000000000000 0.0000000000000000 17.3860881810754968
10.2848593712038330 0.0000000000000000 0.0000000000000000 5.1424290925688618 8.9069498322402261 0.0000000000000000 0.0000000000000000 0.0000000000000000 17.4055710201215135
10.2610318127126341 0.0000000000000000 0.0000000000000000 5.1305153146971465 8.8863145604832887 0.0000000000000000 0.0000000000000000 0.0000000000000000 17.3652464763833265
10.2475190773142781 0.0000000000000000 0.0000000000000000 5.1237589477771968 8.8746121879034803 0.0000000000000000 0.0000000000000000 0.0000000000000000 17.3423782127391100
10.2952206722867743 0.0000000000000000 0.0000000000000000 5.1476097425128637 8.9159229825387989 0.0000000000000000 0.0000000000000000 0.0000000000000000 17.4231059571930516
10.2750570633225191 0.0000000000000000 0.0000000000000000 5.1375279391934141 8.8984607842725421 0.0000000000000000 0.0000000000000000 0.0000000000000000 17.3889820946118583
10.2697354207106724 0.0000000000000000 0.0000000000000000 5.1348671181944026 8.8938521064035623 0.0000000000000000 0.0000000000000000 0.0000000000000000 17.3799760182928615
10.3111216805515564 0.0000000000000000 0.0000000000000000 5.1555602457285863 8.9296936601713934 0.0000000000000000 0.0000000000000000 0.0000000000000000 17.4500160119302770
10.3069815617303515 0.0000000000000000 0.0000000000000000 5.1534901865565814 8.9261082119598179 0.0000000000000000 0.0000000000000000 0.0000000000000000 17.4430094861661935
10.2891583949957006 0.0000000000000000 0.0000000000000000 5.1445786042169894 8.9106728961983173 0.0000000000000000 0.0000000000000000 0.0000000000000000 17.4128464685489988
10.3203596836686753 0.0000000000000000 0.0000000000000000 5.1601792467544039 8.9376940058585355 0.0000000000000000 0.0000000000000000 0.0000000000000000 17.4656499368625902
10.3024130455759586 0.0000000000000000 0.0000000000000000 5.1512059287423977 8.9221517607595242 0.0000000000000000 0.0000000000000000 0.0000000000000000 17.4352779626212886
10.3076898074074972 0.0000000000000000 0.0000000000000000 5.1538443093539090 8.9267215707311696 0.0000000000000000 0.0000000000000000 0.0000000000000000 17.4442080849994738
10.3097637692100506 0.0000000000000000 0.0000000000000000 5.1548812901361547 8.9285176744057679 0.0000000000000000 0.0000000000000000 0.0000000000000000 17.4477179520891426
10.3011868824892439 0.0000000000000000 0.0000000000000000 5.1505928472705875 8.9210898723346439 0.0000000000000000 0.0000000000000000 0.0000000000000000 17.4332028668009364
10.3032783544788984 0.0000000000000000 0.0000000000000000 5.1516385831449174 8.9229011402787872 0.0000000000000000 0.0000000000000000 0.0000000000000000 17.4367423672400363
10.2856512610641566 0.0000000000000000 0.0000000000000000 5.1428250374537150 8.9076356290007084 0.0000000000000000 0.0000000000000000 0.0000000000000000 17.4069111741004079
10.2922179369715732 0.0000000000000000 0.0000000000000000 5.1461083750288221 8.9133225373737073 0.0000000000000000 0.0000000000000000 0.0000000000000000 17.4180242812167485
10.2931222866750893 0.0000000000000000 0.0000000000000000 5.1465605498283509 8.9141057272208037 0.0000000000000000 0.0000000000000000 0.0000000000000000 17.4195547564932447
10.2532213082698220 0.0000000000000000 0.0000000000000000 5.1266100629265141 8.8795504649576014 0.0000000000000000 0.0000000000000000 0.0000000000000000 17.3520283773440767
10.2949950486794961 0.0000000000000000 0.0000000000000000 5.1474969307226068 8.9157275867542722 0.0000000000000000 0.0000000000000000 0.0000000000000000 17.4227241233169785
10.2942541149907640 0.0000000000000000 0.0000000000000000 5.1471264639209178 8.9150859193326468 0.0000000000000000 0.0000000000000000 0.0000000000000000 17.4214702049623007
10.2986924059758760 0.0000000000000000 0.0000000000000000 5.1493456091575425 8.9189295922228862 0.0000000000000000 0.0000000000000000 0.0000000000000000 17.4289813420777016
10.2683676456101143 0.0000000000000000 0.0000000000000000 5.1341832307233748 8.8926675783731302 0.0000000000000000 0.0000000000000000 0.0000000000000000 17.3776612655302642
10.2470436947845140 0.0000000000000000 0.0000000000000000 5.1235212565400099 8.8742004945392168 0.0000000000000000 0.0000000000000000 0.0000000000000000 17.3415736996116756
10.2806741329296027 0.0000000000000000 0.0000000000000000 5.1403364736732673 8.9033253094326028 0.0000000000000000 0.0000000000000000 0.0000000000000000 17.3984881364958639
10.3148838077033886 0.0000000000000000 0.0000000000000000 5.1574413090875959 8.9329517579808027 0.0000000000000000 0.0000000000000000 0.0000000000000000 17.4563828438867574
10.3239025866022427 0.0000000000000000 0.0000000000000000 5.1619506980171286 8.9407622499190431 0.0000000000000000 0.0000000000000000 0.0000000000000000 17.4716457649415489
10.2509633351500042 0.0000000000000000 0.0000000000000000 5.1254810764966692 8.8775950027999304 0.0000000000000000 0.0000000000000000 0.0000000000000000 17.3482070988898052
10.3054501518178920 0.0000000000000000 0.0000000000000000 5.1527244816889111 8.9247819720201598 0.0000000000000000 0.0000000000000000 0.0000000000000000 17.4404178061966952
10.3221336555761649 0.0000000000000000 0.0000000000000000 5.1610662326060712 8.9392303106543913 0.0000000000000000 0.0000000000000000 0.0000000000000000 17.4686521163654724
10.2961206555398288 0.0000000000000000 0.0000000000000000 5.1480597340877710 8.9167023909281600 0.0000000000000000 0.0000000000000000 0.0000000000000000 17.4246290429099133
10.2715285020252338 0.0000000000000000 0.0000000000000000 5.1357636587484929 8.8954049604319305 0.0000000000000000 0.0000000000000000 0.0000000000000000 17.3830105375820523
10.2598949470365053 0.0000000000000000 0.0000000000000000 5.1299468819249006 8.8853300058881572 0.0000000000000000 0.0000000000000000 0.0000000000000000 17.3633225029414362
10.2856683929278354 0.0000000000000000 0.0000000000000000 5.1428336033846742 8.9076504656314839 0.0000000000000000 0.0000000000000000 0.0000000000000000 17.4069401671890738
10.2776854048276132 0.0000000000000000 0.0000000000000000 5.1388421097949193 8.9007369948730624 0.0000000000000000 0.0000000000000000 0.0000000000000000 17.3934301656118286
10.3266401467797220 0.0000000000000000 0.0000000000000000 5.1633194779481988 8.9431330466691978 0.0000000000000000 0.0000000000000000 0.0000000000000000 17.4762786720486645
10.3214462239701437 0.0000000000000000 0.0000000000000000 5.1607225168428519 8.9386349773977862 0.0000000000000000 0.0000000000000000 0.0000000000000000 17.4674887422038552
10.3217797773489934 0.0000000000000000 0.0000000000000000 5.1608892935129376 8.9389238431083999 0.0000000000000000 0.0000000000000000 0.0000000000000000 17.4680532309158743
10.3050459594988375 0.0000000000000000 0.0000000000000000 5.1525223855526576 8.9244319311906111 0.0000000000000000 0.0000000000000000 0.0000000000000000 17.4397337717459813
10.3411063808599000 0.0000000000000000 0.0000000000000000 5.1705525941539117 8.9556611733610545 0.0000000000000000 0.0000000000000000 0.0000000000000000 17.5007605881916106
10.3175228320204315 0.0000000000000000 0.0000000000000000 5.1587608210940186 8.9352372201694834 0.0000000000000000 0.0000000000000000 0.0000000000000000 17.4608489939328386
10.2690107056665862 0.0000000000000000 0.0000000000000000 5.1345047607143304 8.8932244847401147 0.0000000000000000 0.0000000000000000 0.0000000000000000 17.3787495475414744
10.2611871281524731 0.0000000000000000 0.0000000000000000 5.1305929724086381 8.8864490676034187 0.0000000000000000 0.0000000000000000 0.0000000000000000 17.3655093243062595
10.2615306399046879 0.0000000000000000 0.0000000000000000 5.1307647282649995 8.8867465575187250 0.0000000000000000 0.0000000000000000 0.0000000000000000 17.3660906660607495
10.2893567441281562 0.0000000000000000 0.0000000000000000 5.1446777787718707 8.9108446715906737 0.0000000000000000 0.0000000000000000 0.0000000000000000 17.4131821444941330
10.2166304677997921 0.0000000000000000 0.0000000000000000 5.1083146448012497 8.8478618663466371 0.0000000000000000 0.0000000000000000 0.0000000000000000 17.2901039066715043
10.2924476333315269 0.0000000000000000 0.0000000000000000 5.1462232231955714 8.9135214602640929 0.0000000000000000 0.0000000000000000 0.0000000000000000 17.4184130076111998
10.2924557895282600 0.0000000000000000 0.0000000000000000 5.1462273012934787 8.9135285237379946 0.0000000000000000 0.0000000000000000 0.0000000000000000 17.4184268107421687
10.2706813663019361 0.0000000000000000 0.0000000000000000 5.1353400909359221 8.8946713193463758 0.0000000000000000 0.0000000000000000 0.0000000000000000 17.3815768883266522
10.2919816286017554 0.0000000000000000 0.0000000000000000 5.1459902208575654 8.9131178883144369 0.0000000000000000 0.0000000000000000 0.0000000000000000 17.4176243649932054
10.2431739985563990 0.0000000000000000 0.0000000000000000 5.1215864086494287 8.8708492391715463 0.0000000000000000 0.0000000000000000 0.0000000000000000 17.3350248232382960
10.2356065127324865 0.0000000000000000 0.0000000000000000 5.1178026661738771 8.8642956039531793 0.0000000000000000 0.0000000000000000 0.0000000000000000 17.3222179965040510
10.2801977254160359 0.0000000000000000 0.0000000000000000 5.1400982699443585 8.9029127284067986 0.0000000000000000 0.0000000000000000 0.0000000000000000 17.3976818887389051
10.2868028276050634 0.0000000000000000 0.0000000000000000 5.1434008206581039 8.9086329149170638 0.0000000000000000 0.0000000000000000 0.0000000000000000 17.4088600265331834
10.3006154299645498 0.0000000000000000 0.0000000000000000 5.1503071210414637 8.9205949799127282 0.0000000000000000 0.0000000000000000 0.0000000000000000 17.4322357697170887
10.2986020984061017 0.0000000000000000 0.0000000000000000 5.1493004553783406 8.9188513835697147 0.0000000000000000 0.0000000000000000 0.0000000000000000 17.4288285101558849
10.2660491392611082 0.0000000000000000 0.0000000000000000 5.1330239776827442 8.8906596928977848 0.0000000000000000 0.0000000000000000 0.0000000000000000 17.3737375437293409
10.2486093377342264 0.0000000000000000 0.0000000000000000 5.1243040779249007 8.8755563811578995 0.0000000000000000 0.0000000000000000 0.0000000000000000 17.3442233138212423
10.3455416482720111 0.0000000000000000 0.0000000000000000 5.1727702276048406 8.9595022277585930 0.0000000000000000 0.0000000000000000 0.0000000000000000 17.5082666083695742
10.3104844790613530 0.0000000000000000 0.0000000000000000 5.1552416450210847 8.9291418274703993 0.0000000000000000 0.0000000000000000 0.0000000000000000 17.4489376446541762
10.3050639054335988 0.0000000000000000 0.0000000000000000 5.1525313585197123 8.9244474728252055 0.0000000000000000 0.0000000000000000 0.0000000000000000 17.4397641425336261
10.3290957489381618 0.0000000000000000 0.0000000000000000 5.1645472788862516 8.9452596606000654 0.0000000000000000 0.0000000000000000 0.0000000000000000 17.4804344078009564
10.3088535166695205 0.0000000000000000 0.0000000000000000 5.1544261639191182 8.9277293725522338 0.0000000000000000 0.0000000000000000 0.0000000000000000 17.4461774871527524
10.2719351763049449 0.0000000000000000 0.0000000000000000 5.1359669958654219 8.8957571507011153 0.0000000000000000 0.0000000000000000 0.0000000000000000 17.3836987723770591
10.2613641462346212 0.0000000000000000 0.0000000000000000 5.1306814814397894 8.8866023697642973 0.0000000000000000 0.0000000000000000 0.0000000000000000 17.3658089006735175
10.3136431254218088 0.0000000000000000 0.0000000000000000 5.1568209680190558 8.9318772955647709 0.0000000000000000 0.0000000000000000 0.0000000000000000 17.4542831765254789
10.2701261070489984 0.0000000000000000 0.0000000000000000 5.1350624613419242 8.8941904507082601 0.0000000000000000 0.0000000000000000 0.0000000000000000 17.3806371959114578
10.3260973356410108 0.0000000000000000 0.0000000000000000 5.1630480724105601 8.9426629584134254 0.0000000000000000 0.0000000000000000 0.0000000000000000 17.4753600461888006
10.2674815027252002 0.0000000000000000 0.0000000000000000 5.1337401593325005 8.8919001560927651 0.0000000000000000 0.0000000000000000 0.0000000000000000 17.3761616025450891
10.3110674718809996 0.0000000000000000 0.0000000000000000 5.1555331413971706 8.9296467140816418 0.0000000000000000 0.0000000000000000 0.0000000000000000 17.4499242719451715
10.3277324588913704 0.0000000000000000 0.0000000000000000 5.1638656339414464 8.9440790167413144 0.0000000000000000 0.0000000000000000 0.0000000000000000 17.4781272453152603
10.2631298348235376 0.0000000000000000 0.0000000000000000 5.1315643256325174 8.8881315009966659 0.0000000000000000 0.0000000000000000 0.0000000000000000 17.3687970619150818
10.2690948234541217 0.0000000000000000 0.0000000000000000 5.1345468196034858 8.8932973328826126 0.0000000000000000 0.0000000000000000 0.0000000000000000 17.3788919041960632
10.2691778655724040 0.0000000000000000 0.0000000000000000 5.1345883406575830 8.8933692494693073 0.0000000000000000 0.0000000000000000 0.0000000000000000 17.3790324404386674
10.2677144410875005 0.0000000000000000 0.0000000000000000 5.1338566284999763 8.8921018866408019 0.0000000000000000 0.0000000000000000 0.0000000000000000 17.3765558155408044
10.2979398849600212 0.0000000000000000 0.0000000000000000 5.1489693486935009 8.9182778898815265 0.0000000000000000 0.0000000000000000 0.0000000000000000 17.4277078139257640
10.2771054160981645 0.0000000000000000 0.0000000000000000 5.1385521154638676 8.9002347098788555 0.0000000000000000 0.0000000000000000 0.0000000000000000 17.3924486222971204
10.3034908946563117 0.0000000000000000 0.0000000000000000 5.1517448532215573 8.9230852054795786 0.0000000000000000 0.0000000000000000 0.0000000000000000 17.4371020593900958
10.2863634081404403 0.0000000000000000 0.0000000000000000 5.1431811109512644 8.9082523664832873 0.0000000000000000 0.0000000000000000 0.0000000000000000 17.4081163754646226
10.3517140221801540 0.0000000000000000 0.0000000000000000 5.1758564142029257 8.9648476605703475 0.0000000000000000 0.0000000000000000 0.0000000000000000 17.5187124189123118
10.2474189882155056 0.0000000000000000 0.0000000000000000 5.1237089032342515 8.8745255081961965 0.0000000000000000 0.0000000000000000 0.0000000000000000 17.3422088270594585
10.2682571447997280 0.0000000000000000 0.0000000000000000 5.1341279803245996 8.8925718818589949 0.0000000000000000 0.0000000000000000 0.0000000000000000 17.3774742596007812
10.2606340017059239 0.0000000000000000 0.0000000000000000 5.1303164092172535 8.8859700460293549 0.0000000000000000 0.0000000000000000 0.0000000000000000 17.3645732413436740
10.2829367597190107 0.0000000000000000 0.0000000000000000 5.1414677869378096 8.9052848017858128 0.0000000000000000 0.0000000000000000 0.0000000000000000 17.4023172905843495
10.2962729727051627 0.0000000000000000 0.0000000000000000 5.1481358926619265 8.9168343014660802 0.0000000000000000 0.0000000000000000 0.0000000000000000 17.4248868167092077
10.2780180606020153 0.0000000000000000 0.0000000000000000 5.1390084376628922 8.9010250832330868 0.0000000000000000 0.0000000000000000 0.0000000000000000 17.3939931352683423
10.3254182234365768 0.0000000000000000 0.0000000000000000 5.1627085163472186 8.9420748299695578 0.0000000000000000 0.0000000000000000 0.0000000000000000 17.4742107513583598
10.2778101868235296 0.0000000000000000 0.0000000000000000 5.1389045007858636 8.9008450592532711 0.0000000000000000 0.0000000000000000 0.0000000000000000 17.3936413402954173
10.2783849384466137 0.0000000000000000 0.0000000000000000 5.1391918765646771 8.9013428087793969 0.0000000000000000 0.0000000000000000 0.0000000000000000 17.3946140206050224
10.2501384251208361 0.0000000000000000 0.0000000000000000 5.1250686215305334 8.8768806097304616 0.0000000000000000 0.0000000000000000 0.0000000000000000 17.3468110632659389
10.3027830166760417 0.0000000000000000 0.0000000000000000 5.1513909142726213 8.9224721651418637 0.0000000000000000 0.0000000000000000 0.0000000000000000 17.4359040828267808
10.2187336300835589 0.0000000000000000 0.0000000000000000 5.1093662258229999 8.8496832583823082 0.0000000000000000 0.0000000000000000 0.0000000000000000 17.2936631911701149
10.3311984199555695 0.0000000000000000 0.0000000000000000 5.1655986142742014 8.9470806271873151 0.0000000000000000 0.0000000000000000 0.0000000000000000 17.4839928609037578
10.3201030124389153 0.0000000000000000 0.0000000000000000 5.1600509111555688 8.9374717220430355 0.0000000000000000 0.0000000000000000 0.0000000000000000 17.4652155595755829
10.2481565231333303 0.0000000000000000 0.0000000000000000 5.1240776706512587 8.8751642321958997 0.0000000000000000 0.0000000000000000 0.0000000000000000 17.3434569935068055
10.2835678843553850 0.0000000000000000 0.0000000000000000 5.1417833492203266 8.9058313717758661 0.0000000000000000 0.0000000000000000 0.0000000000000000 17.4033853737038378
10.2797679150683425 0.0000000000000000 0.0000000000000000 5.1398833647958462 8.9025405017129771 0.0000000000000000 0.0000000000000000 0.0000000000000000 17.3969544996477801
10.3232731974904777 0.0000000000000000 0.0000000000000000 5.1616360034984039 8.9402171829377348 0.0000000000000000 0.0000000000000000 0.0000000000000000 17.4705806189381327
10.3432549948212049 0.0000000000000000 0.0000000000000000 5.1716269010116207 8.9575219277047022 0.0000000000000000 0.0000000000000000 0.0000000000000000 17.5043967927911162
10.2870946400270622 0.0000000000000000 0.0000000000000000 5.1435467268527981 8.9088856318975953 0.0000000000000000 0.0000000000000000 0.0000000000000000 17.4093538749830685
10.3097887896553875 0.0000000000000000 0.0000000000000000 5.1548938003583826 8.9285393427485680 0.0000000000000000 0.0000000000000000 0.0000000000000000 17.4477602954153390
10.2960114636779423 0.0000000000000000 0.0000000000000000 5.1480051381639953 8.9166078279970247 0.0000000000000000 0.0000000000000000 0.0000000000000000 17.4244442521800629
10.2718597694110034 0.0000000000000000 0.0000000000000000 5.1359292924230591 8.8956918464138681 0.0000000000000000 0.0000000000000000 0.0000000000000000 17.3835711575988228
10.2349197831719856 0.0000000000000000 0.0000000000000000 5.1174593014331782 8.8637008786854352 0.0000000000000000 0.0000000000000000 0.0000000000000000 17.3210558104495753
10.3189991144238711 0.0000000000000000 0.0000000000000000 5.1594989622113303 8.9365157182824966 0.0000000000000000 0.0000000000000000 0.0000000000000000 17.4633473789208793
10.2678520822495543 0.0000000000000000 0.0000000000000000 5.1339254490733364 8.8922210873886502 0.0000000000000000 0.0000000000000000 0.0000000000000000 17.3767887524147540
10.3716590623190719 0.0000000000000000 0.0000000000000000 5.1858289331223517 8.9821205726747113 0.0000000000000000 0.0000000000000000 0.0000000000000000 17.5524663867680992
10.3078560738719140 0.0000000000000000 0.0000000000000000 5.1539274425781523 8.9268655617182020 0.0000000000000000 0.0000000000000000 0.0000000000000000 17.4444894658765008
10.2896186013352651 0.0000000000000000 0.0000000000000000 5.1448087073614657 8.9110714465935512 0.0000000000000000 0.0000000000000000 0.0000000000000000 17.4136252982681157
10.3491205146155618 0.0000000000000000 0.0000000000000000 5.1745596605706652 8.9626016170491205 0.0000000000000000 0.0000000000000000 0.0000000000000000 17.5143232990919131
10.3242936519037087 0.0000000000000000 0.0000000000000000 5.1621462306461314 8.9411009224175082 0.0000000000000000 0.0000000000000000 0.0000000000000000 17.4723075838988073
10.2967525929112860 0.0000000000000000 0.0000000000000000 5.1483757027378694 8.9172496647661585 0.0000000000000000 0.0000000000000000 0.0000000000000000 17.4256985014649146
10.2885394140695823 0.0000000000000000 0.0000000000000000 5.1442691137906058 8.9101368429700170 0.0000000000000000 0.0000000000000000 0.0000000000000000 17.4117989368262336
10.2708728785451804 0.0000000000000000 0.0000000000000000 5.1354358470471722 8.8948371738212408 0.0000000000000000 0.0000000000000000 0.0000000000000000 17.3819009938749289
10.3054676747706750 0.0000000000000000 0.0000000000000000 5.1527332431655202 8.9247971473441705 0.0000000000000000 0.0000000000000000 0.0000000000000000 17.4404474611531839
10.2930991794285607 0.0000000000000000 0.0000000000000000 5.1465489962076978 8.9140857157599189 0.0000000000000000 0.0000000000000000 0.0000000000000000 17.4195156509731568
10.2600784479433251 0.0000000000000000 0.0000000000000000 5.1300386323691392 8.8854889223431073 0.0000000000000000 0.0000000000000000 0.0000000000000000 17.3636330505161816
10.3020636337902474 0.0000000000000000 0.0000000000000000 5.1510312228716577 8.9218491612667101 0.0000000000000000 0.0000000000000000 0.0000000000000000 17.4346866359541508
10.3284948329972330 0.0000000000000000 0.0000000000000000 5.1642468209510906 8.9447392521127149 0.0000000000000000 0.0000000000000000 0.0000000000000000 17.4794174483387330
10.2647682230307549 0.0000000000000000 0.0000000000000000 5.1323835196422651 8.8895503868629326 0.0000000000000000 0.0000000000000000 0.0000000000000000 17.3715697864879388
10.3599983981754580 0.0000000000000000 0.0000000000000000 5.1799986017235193 8.9720221409154988 0.0000000000000000 0.0000000000000000 0.0000000000000000 17.5327324739798094
10.3494031214208899 0.0000000000000000 0.0000000000000000 5.1747009639571866 8.9628463617331278 0.0000000000000000 0.0000000000000000 0.0000000000000000 17.5148015684250211
10.2654136393613680 0.0000000000000000 0.0000000000000000 5.1327062277704041 8.8901093338227462 0.0000000000000000 0.0000000000000000 0.0000000000000000 17.3726620561418450
10.3097026098973785 0.0000000000000000 0.0000000000000000 5.1548507104847356 8.9284647088889155 0.0000000000000000 0.0000000000000000 0.0000000000000000 17.4476144491938783
10.2881379670387858 0.0000000000000000 0.0000000000000000 5.1440683902988775 8.9097891796319733 0.0000000000000000 0.0000000000000000 0.0000000000000000 17.4111195483644536