3.3933678392310504535 1.8439255798269349462 1.4194133666868589128 7.0880451411949518814 1.9470031097410824827 1.3177457097639782013 10.5004480039123180291 1.9854659429240455459 1.3031817960551630442 5.0506336102321789383 4.9290670959892217695 1.2988458409533787385 8.6136420796387334065 4.8831425268503165782 1.3486918409339694325 12.1096022273620285148 4.9222674325281712271 1.3646194824570552218 6.8198928115407762007 7.7992766183030948213 1.2989507430929383425 10.5162695686227607439 7.8659491079238073041 1.3634655589219031313 13.9271227715400627289 8.0078562949707894347 1.3454398746076312587 3.1654810148871304065 2.3323471956192465271 7.1708130375444776305 6.6037217676367863106 2.2135767581910452684 7.2545773959825732291 10.1912973976550862432 2.2211726980310859680 7.1393773630565435795 5.0493680384969037434 5.2573387434226015458 7.0947939537438440283 8.3963962197870465332 5.1539033364841895235 7.2810826699112203286 11.8036800673790516214 5.1173283046042268296 7.2916428186268555933 6.7361753732756124435 8.1359225881042949169 7.3291628172092302407 10.1410004400011288794 8.0729899133871594330 7.1472974745932695839 13.5287586500223468988 8.1996962738284544514 7.1362827499395438124 3.6040069908899301510 1.8927042182343589705 13.0955809777137535121 7.0361007802379811338 1.8767876375801391120 13.0817513789818526959 10.5371541261098755626 1.8321693195798045561 13.0953362060547817691 5.2409878140968473303 4.8451896684269319948 13.0713660671654832157 8.6507924308818697767 4.8017791853834941307 13.1767752337326466971 12.1642223290973863215 4.8911142375658362980 13.1580676855112397305 6.9966668782639196422 7.8973886045055534666 13.1578753649220470123 10.4103921129881484831 7.9130009896891477794 13.1637149173575132011 13.8807933338075581986 7.7248024095533889266 13.0324298896990597996 1.8742328245182533486 0.8439992801771702968 16.2223291167978764804 5.2481681304645242392 0.9721192548643147191 16.1030553841189600917 8.7449134439389428763 0.8869534700146689543 16.0087308769652310048 3.5028661750788465667 3.9310107037912449535 16.0219135791698477078 6.9595787924928096402 3.7830196073317439165 16.0614616857837013697 10.4327745348255600533 3.8837798835137706810 16.0866731666577855719 5.2800854166296158354 6.9547047348870991712 15.9048777588015308737 8.5894002077094597780 6.9087354311201609747 16.0504819285098285775 12.1109399645683151192 6.8719009383976077388 16.1320783093970305799 1.6311025957950078258 1.1105639817015264814 4.4177438032604809948 5.0678608369890589813 1.1460295948062639848 4.4686038572568111960 8.4892000302696111191 1.2030125639949804661 4.5052846387227107883 3.2030806350066058918 4.2105305535940216188 4.2819479836009772811 6.6769582371042872637 4.1237990567632136774 4.3809930870348763321 10.1222189041183163738 4.2067370571368050136 4.4256289474173549081 5.0134056341113151234 7.1466610237776500014 4.3587363497583790917 8.4683877927515425199 7.1942407741537826027 4.5551131550133749926 11.7868661983336320276 7.1440843092029355788 4.4843566618806320889 1.8567320636247397481 1.0542699257845213889 10.3288045305273428198 5.3772800536767739743 0.8513625999514384812 10.3249056676737218652 8.6248670007433521079 0.8503426504322809665 10.3936515364649135762 3.5127632988888599641 3.8227529039508505448 10.3350811752109734698 7.0788142401352214250 3.9777673370115671503 10.3621634109071969476 10.4406364372677007424 3.9338647730597644525 10.3859237455173776254 5.2491905066180022388 6.9012826420898267799 10.3887036522156996909 8.7045652476703416767 6.8936777553241785910 10.3304654810703659962 12.1060895581137568655 6.7643320518289247190 10.3503619202067778104 0.1076182388167505333 -0.1433297482184394400 -0.0327644349223523285 3.5465305075033044524 -0.2572151642654129655 0.1131369575146968648 6.9182549701259556940 -0.0514716630150238580 -0.0881352809197321757 1.8150927665061331595 2.9069903334827875696 -0.0501956737791214164 5.2088223190144802288 2.8344844483665432300 -0.0104377628861495944 8.7274900514994797618 2.8123050197876722223 -0.0063990305131168372 3.5450217598524766949 6.0331177158491104962 -0.1246237417964393829 6.9277901124140406353 5.7855562843132668505 -0.0617698765104966810 10.4081142646737809798 5.7882582558464727995 0.0415412472654797943 -0.2370969152049665074 0.2939244000294739534 5.8161767420354815172 3.1557596691833529334 0.1760486551619371565 5.9515529531367485916 6.5649702480086542522 0.1978702067165422629 5.8436611026000164770 1.5514089666173331850 3.2942222206639537596 5.6110056407474324658 4.9658625518882395511 3.1044042469933912365 5.8226107399284519062 8.4069753172277295050 3.1479668277721417624 5.9845971270979259060 3.1798873688401156912 6.1266041415129359748 5.7889371531299183005 6.6735901908668608939 6.1349963577319677199 5.6569877452542556284 10.1376533251956679749 6.0380832595607980551 5.9064100657463995958 0.0279299158559034102 -0.0729979660246097006 11.6958717295741152498 3.5995079581212112707 -0.0025498737978935856 11.6692091024361275231 6.9432095607340569288 -0.2497981629375049806 11.7391613458322492392 1.7179966742646242128 3.0007809546172379278 11.7654393317918533057 5.3827398540262443305 3.0053259928254134614 11.6302204738999250822 8.6636185175228739297 2.9088334001577562660 11.8743277526543984379 3.4666041694038240983 5.8462611745543471287 11.6486133157026525708 6.9077944136759850124 5.9455899426393106211 11.7209957919985647834 10.3356421547403396488 5.9192054590253171398 11.8249188449219726493
3.3482223473812569026 2.1220966630261233199 1.2106805877221407108 6.5850337307579476231 2.0515581760049990123 1.3241688361887322678 10.2632050973915553982 2.0934910704743638910 1.2413549693448027167 5.0797414221927841282 4.9568119991759811427 1.3467132880623686741 8.3997523703994421140 5.1230291109264403104 1.4671824826303718758 11.7807280167591859055 4.9841882015775871295 1.1839406046503990755 6.6436423306567116143 8.0950352558010436610 1.4054855425221344234 10.1601824736594430476 8.0007641937073934457 1.2952005211943453666 13.5340602250073800406 7.9812275806690848867 1.1981984471866988784 3.5251037754729428464 1.7467941395068120602 7.2408253118902363710 7.0213737868215080340 1.7477117278072888951 7.2109169193659834463 10.4143592605740007428 1.6578771606033217978 7.1140541161035022455 5.2017839424931073822 4.8081983289958367678 7.2822235408906283993 8.6544842522022094045 4.6666046547455533045 7.2720219588072678718 12.0676832624674972294 4.7486352670833289480 7.3095554246293223954 6.9294660382203874249 7.7232694561194934479 7.3029748819202602306 10.4647795640222973645 7.8416294382567324206 7.1821749193324899707 13.9633846872409037587 7.6939689908741701885 7.2817709109688406599 3.4601066554017876342 2.0386317621798353272 13.0850087735763356278 6.7055846551499227459 2.0673264409743588033 13.1717222212848952267 10.2634571246996397775 2.0802261289266934519 13.3411799004647999567 5.2109751736115477172 5.0829848448036871744 13.0892217136175865733 8.5517911681776439536 5.1318308317115963746 13.0833897511637893274 11.9192808212055183503 5.1116706149739350451 12.9490457086086916405 6.8321323872216872530 7.9789826073514129590 13.0399720963585004085 10.2497855807211379897 8.0320423735420956035 13.0670950739794449191 13.6852092122552964071 8.0343140727325952355 13.1671436955375842359 1.5942676625322302897 1.0119840833103790345 15.7992737349464338337 4.9956471432211007055 1.1629318130509602724 15.8931248083447158592 8.3921249792044871896 1.1323128714127179695 15.9118219058831602553 3.2317139993306245316 4.1076508417667243478 15.8412464557706336166 6.8699057529520128895 4.0382882931500949653 15.9776969683463576644 10.0398169728401107648 4.0604262244771334167 15.8455986665570502936 4.9339722940711787658 6.9093419077236921666 15.9223890736725781636 8.3508128245577744053 7.0581872021350253732 15.9127619834130271670 11.8999363806505265018 7.0130472029261303746 15.9236425103790661950 1.9285935898484161122 0.7686093767013766342 4.3170101055757656994 5.2508933497821512759 0.9300603744639212023 4.3541779856917601776 8.7742022044334628816 0.8064799385006690136 4.3307630916608408356 3.5449417193600294418 3.7913679540790554690 4.5567472845347207766 6.9186394480209045810 3.8290870692656477914 4.4531298501317211347 10.3279294856181422801 3.7817110053633573585 4.4599192989585310087 5.2990145915388300324 6.5654422847789524198 4.4137162292499354521 8.6507705765909719275 6.8202467563346722557 4.4150915278584434986 12.0273691856823212731 6.7851824111824692309 4.4291230554338492098 1.6780072883376790926 1.1833949230140219377 10.3199099902208946133 5.2062538002912912560 1.1088831895655906212 10.1836509749197734465 8.6418780289926750982 1.0404649551222675541 10.2952416594834872399 3.4916252578468602863 4.0039989983099451010 10.2564373481117989684 6.9206916487561311868 4.0459497100278625226 10.3453269012135660176 10.2483559841269453727 4.0126849069795076375 10.3751656583652369648 5.1091460842147302657 6.9896442469518316187 10.3159581828268294146 8.5248550644067275783 7.1847609358551727254 10.2591009011130864792 11.9777765422802815465 7.0113545643136001573 10.2810360434766234761 -0.1364697418318910893 0.0668414079463869742 -0.1657147779035870461 3.2615305385043424913 0.0510820516013038711 0.0526791593587829024 6.7367949090535192980 0.1990988439549250255 -0.1183104980179407045 1.5533620943863375441 3.0601213475932120822 -0.2277250771884465064 4.9458537924777070671 3.1145352246739177460 -0.2103510517290726189 8.4558669548710216901 3.1786327763431505566 0.1321331194755988869 3.3683584886761228638 5.9627560352269117772 0.0686430685233579002 6.7771650397159799439 6.0249204154281486012 0.0385954052539397505 10.2399618253468833728 6.0524926075638374456 -0.2183417107329329587 0.0821812128955413113 -0.3723983120051803652 5.6989240744786684445 3.5072048809023277371 -0.1305202542746255745 5.8483964017273510905 7.0486493425413581093 -0.1217541679865748044 5.5844957484822117522 1.8519208418441950315 2.8334057683812168271 5.8243373805000420163 5.3676791874975426921 2.7555443922048308281 5.8668323666186097398 8.8544647738227055811 2.7866978512996616324 5.8794363690560711433 3.4971542952621583744 5.7123435154394934798 5.9650704684895989871 6.9365486271150036401 5.7404858595288761336 5.9209390511153374703 10.3032924785414614632 5.8572957410420078972 5.7651995403342164437 0.0313644228384103441 0.1287118035465012744 11.7474351281654403323 3.3214150959714174860 0.1581013550345901075 11.6522958003743806188 6.9037238496211852379 0.0556789017279646289 11.6980984666906255853 1.5698621145933315812 2.9929681377971486533 11.8168615946303532382 5.1463382523537530844 2.9557568141943155737 11.6480306338036925240 8.6008233052894471626 3.0444599861151706577 11.9327348546079008429 3.6126286767029101021 5.8884937432582216132 11.5602204289769581180 6.8907260917543036172 5.9897758926574580229 11.5895543296774032882 10.2413453856534850672 6.2527317554261507837 11.5947421649348125783
3.5561337264751751164 1.7667126047547021539 1.3352095873198286391 7.0805573972984312547 1.9228625515010648872 1.4276126618028359694 10.5885534801378060621 1.9376565506893468349 1.4140481069429651217 5.3172905939296146727 4.8122306490056478978 1.3953161026126672528 8.6663954463890320312 4.8430336134991236463 1.2701276561517478303 12.2411747488432389730 4.7474979689825254070 1.4025260912318777695 6.9225632411244042430 7.6947913628257680330 1.2967330378846220196 10.5759938496824794640 7.7065032788498237792 1.4776112269491299411 13.9672585699908076151 7.7467936993444803662 1.3852081524661223888 3.3475418968914398832 2.1597898778732993463 7.3901161314939951552 6.8334729085579795083 2.1275575414775742544 7.3651517641199726327 10.1650051328343664636 2.1415564525452297495 7.2560592244554511510 4.9576938194166668694 5.1140693268887860157 7.3693765032140383653 8.4279657448287945698 5.1008297696441990965 7.3703366711899613861 11.9313352745442227132 5.1950164444280497733 7.3761151366450681266 6.6855519223355965863 8.1419524952957278430 7.2877622252605034348 10.1960185954793463026 8.1050300323457484808 7.2920567947528169839 13.6123553951560243291 8.0422895394113869116 7.3232011523718778534 3.3001262511853024506 1.8236462743361754324 12.8828705121640396669 6.8040476641429457061 1.9404438258987333210 13.0060862498744231885 10.2417171150434285209 2.1072604604656324234 12.9478127825356210678 5.1210104542620804580 4.9346295517101452788 13.0189350431522417040 8.5868054046597581674 4.9727044457563147617 12.8633354582538768085 12.1171502395911705463 5.0068396334969094141 12.9866210263625099230 6.9227128043923169542 7.8896236866767566198 12.8541353032845702131 10.1815922302661014953 8.0262269726598578501 12.9305646741681155021 13.8007440981303481919 7.9286276724593882648 13.0204538543141570273 1.7869821225378814677 0.8891407917942668604 15.9842654471970462282 5.2503787064398874662 0.7598094353638593645 16.0429055241266560472 8.6222449337503483946 0.8302506694215897598 16.0760575056953740614 3.5434763522174037575 3.7142854230159043638 15.9786615577375634700 7.0421832374104447183 3.6894411526399313317 16.1005330602816556507 10.3765780286341158245 3.8959675253661978367 16.0795315680082637755 5.3116117225354537723 6.7959040413730376073 15.9447414417881034865 8.7736982103451257586 6.8849807116063450607 16.0261811437460153229 12.2888584806569607366 6.8794150947619616687 16.0124943856892087979 1.5738875307891808664 1.3056508305353657917 4.5362175854550548237 4.9580912336436560039 1.1561653302832410883 4.5986285038901106859 8.5180573255629568052 1.1352965005103992091 4.4093881246352832903 3.3088376237681358383 4.1358429312868221217 4.6315884518636449840 6.6419378253492080688 4.0644547383438505150 4.5517024762667732674 10.2579795194449054918 4.2602786889520247726 4.5947529167872902534 4.9658894341869128652 7.0909532027204900118 4.6113376363714309036 8.3090370218595808183 7.1847289330824430920 4.5206803218446491854 11.8537360354232035320 6.9576553392613398330 4.6263686295945314342 1.7195954385228906514 1.0240824329410034288 10.1803991847280830285 5.2251415735195045897 0.9215339325289948480 10.1791596951591643005 8.4768980856022349002 0.9092234670208715341 10.2963176458214480391 3.4927906166372322261 4.0359745031915306157 10.1205545334286792780 6.7671486249180325956 3.8652002951702786326 10.0983135515863686749 10.3253868438646740913 3.9871703863041014770 10.0888689902231885043 5.0252712041479803418 7.0508146529904474065 10.2323006282266621980 8.4835254637933843469 6.8656216559052536397 10.1227716485730852014 11.9944872771628610053 6.9594688548623198088 10.2000738994347450728 0.2535523608824664654 -0.0426578177077568538 -0.0131630300699390815 3.8195015117505941582 -0.2039267025790504062 0.0499112771484825427 7.1156563704315498597 -0.1008689884268654802 0.1636649958961258478 1.8051271321618680421 2.9262280254338404184 -0.0325758807831648886 5.2380617382272562921 2.8402423719391474144 -0.0325235079844781311 8.6945520198638650555 2.8042936685975736744 0.0721173437916688975 3.5826342398041877146 5.8243599594140897935 -0.2082517051781211104 6.9350813581002093144 5.6968242514358840012 -0.0833251227106355935 10.4832618646198305612 5.8148278355409646068 -0.0074194798139577047 -0.1216880202799092980 0.1850411263205796186 5.8237330107708062954 3.4300307412197925672 0.2544818000467354291 5.8534283876261996582 6.8187114136272191089 0.1357099285441956682 5.8386243431974094165 1.6576501111676427147 3.0183599781082062208 6.0094644125136200685 5.0229504451712037039 3.2712873362112451225 6.0674236430603025738 8.4802350254580662892 3.2768261523324619944 5.9524653499428632486 3.1930242190826896298 6.1258680950448329838 6.0328401383274785630 6.7698305263141733690 6.1980245753852623025 5.9213035347242408690 10.2058752898587776770 6.0632705393006958161 6.1085013748302845471 -0.0115844146346591806 -0.1091146775879669462 11.6371311226007598805 3.4601781026207079073 0.0692262679408184034 11.4472273545625657931 6.7869599986169530936 -0.0187694397914130139 11.6927335772065372765 1.5768995793685516293 2.9191258337945389378 11.6098099792858313606 5.0446029172047461842 2.9432643517937759903 11.5914794997454659864 8.5512476542434061599 2.9856809629930283201 11.4195570592563946377 3.2763278802597706196 5.9593373348583833504 11.5237265558443606750 6.7797283631122073899 5.9584707781426446971 11.4801873025361000913 10.1618018851287672533 5.9421759384570016493 11.5369943315116731952
3.4018258540725048178 2.2067916956457636068 1.4051742219951095514 6.8220812337209721932 2.2394876123759948072 1.4454534102004197305 10.2611055721540953556 2.1500617403705786224 1.4282829477834564358 4.9725625040411554068 5.1784575338024261271 1.2772490527101076907 8.5180368242100179543 5.3181615094306184943 1.5146751019929438620 11.9670836233553643524 5.1430792864818970500 1.3745251207234510105 6.7515583693067444671 8.0149018291778038048 1.4275863773000097012 10.3597605056688841785 8.0430172876907182200 1.4581832357854098703 13.6140897174921935431 8.0824858663765173361 1.4508518314471323674 3.6251496385949106838 1.8203400399021785194 7.3722233686073739278 7.1168124357701625371 1.8817930357516401418 7.3265457591553513339 10.4141949887068250291 1.8829247832100048932 7.2931277902119919787 5.1388282637844699963 4.8399491955864082371 7.2422433163962045555 8.6834999700916863929 4.8934621364326984505 7.3042206751608818038 12.1212277595122408513 4.9490959898387592020 7.3544434070173947404 6.9916702675091384478 7.8231018248756054589 7.3144776755296359028 10.3909289153965929131 7.8139943768248292244 7.2355388254930295133 13.9244719871256688037 7.9444037650587358002 7.2988396681762557350 3.3049764456134012036 1.8566450725429421986 12.8095132482962750231 6.7041836514023200877 1.7292477365998002448 12.8633233181425392644 10.1978426965309747487 1.9567022415391366330 12.9744611387764727795 4.9598749546785363407 4.9633898711239297086 12.8406847774305177268 8.4880055084180945357 4.8036976313295038921 12.9666769636239536112 11.9651131085883584149 4.8539311779657303703 12.8195961060441661061 6.8666571211072415792 7.8028907757766239328 12.8754958873407723274 10.3296982920664088823 7.9464801206319561899 12.9568379055452691517 13.6648194159826132932 7.7257448092643281612 12.8911513089562372869 1.6417686149075187974 1.0144912925600979570 16.0362541130288960289 5.0842760991901672085 1.1866416657938427814 16.1524594839299027171 8.4778135075627893968 1.2130372246259346625 15.9948952405742410576 3.2648761895388513921 4.0501142292103198272 15.8932307785151838431 6.8159585557794608590 4.2068746192897696901 15.9786129055236720831 10.1318939735974833383 4.1461256238277943709 16.1346969366020083214 5.1883950107257703621 7.2186506567385473332 16.0177775809554674424 8.5242569989995775614 7.2273125349238265258 16.0957238180531625460 11.8477864393051390834 7.0724057154848471995 16.0496805090973317931 1.8221367929279947973 0.9718680792265749213 4.4802368639571925613 5.1915801850619986979 0.8966826201224696868 4.4811946483719307111 8.7596770747297227899 0.7996196806224206144 4.4888569236898465675 3.4856686175468425404 3.9306302140784201704 4.6304871172366635079 7.0424773868003027744 3.7740213177532400124 4.5481350718311670533 10.5120012620238529877 3.8050775373784389011 4.5428585504190577282 5.1918370376541300715 6.8635582081287003220 4.5782791595023271114 8.7190929450201561934 6.6559404736013272341 4.3694299143028949572 12.1349956412873396516 6.9221684682362862873 4.4079676762995889661 1.6553359806481275918 0.9018957875487944031 10.0426308024731358870 5.0450300768239930704 0.9149331618132610089 10.0190518916084609913 8.5471114967190171541 0.9327113994466247338 10.1202461685911924150 3.4143280881367337187 3.8545625266406293719 10.1095015688840259571 6.8871087452700248122 3.9076744546079713594 10.0420735460863763677 10.0895146450189656662 3.9160600794766406985 10.1562240340612177647 5.0551396005119499932 6.8667573997629753890 10.1546567504734621679 8.5463599394477789417 6.7548837179337777314 10.1909480726610421897 11.8586218170125530236 6.8756064172917623623 10.0662793703861535022 -0.0956815213498215245 0.0600182608825588076 -0.0849641847184213761 3.3143353084950235576 0.1663401421876529729 0.0737145714107558248 6.9297147123784226252 0.2531015063973920398 0.1677690009381577196 1.6612937407505821152 3.1086963945918677510 -0.0193820737019067407 5.0428947557138634750 3.1253785303561070208 -0.0245715238035852761 8.6309799577171446572 3.0690317651652501141 0.1062966557739791068 3.2506346922689854928 6.2183284859012815105 -0.0697092911309368235 6.7863489787041260115 5.9614307242498467687 0.0462696943629525709 10.0970056114957138504 6.1658492671429456777 0.0615071736883509509 0.2084392859655601893 -0.0715139634124030282 5.9700966424773449504 3.4900524280803497668 -0.1653866226754875934 5.8610833618179221105 7.0816876700982236414 -0.0983105351234430380 5.8486147501642253843 1.9772017392842549111 2.9458049631631681997 5.9647156354927179933 5.2663471560889512091 2.8753514560306498993 5.9402311829995637638 8.7904697452609568131 2.8893334384099720324 5.9616507253655521836 3.4904893458492538549 5.9476804382005843408 5.9303224678725330321 6.9883467382428108294 5.7342346498324996418 5.8043302816790962595 10.4686853918723645762 5.8585397309090865292 5.8769825831025954699 -0.1829355201442243173 -0.1315678698842016880 11.4920894929533723428 3.3858559300130903758 -0.0158890214036529129 11.5759914076845387143 6.7176790948228424227 -0.0000891139730995677 11.3504767136686428586 1.4194943147601915001 2.8293151775274130166 11.5437401943009518845 4.9098399853645835478 2.9993089926121481170 11.5383417730542383595 8.3334756385617421159 2.8783278627321755572 11.6125961865896663028 3.3538330732706334025 5.8820301742181326787 11.3481606168111817112 6.9486324939442312143 5.8705344716882885692 11.6141634701774218996 10.3056198352120365058 5.9766157452660140237 11.5913333725824525544
3.5396121582377935155 1.9685282416745697454 1.3141099384596199862 7.0439383677281490748 1.9170704724473370817 1.3287525628787353327 10.4800131103760776341 1.9425039314547427605 1.2888308556810990080 5.2693278020798057781 4.9261503652334130976 1.4287492667970920213 8.8193445040390212597 4.8389550499457918420 1.2855594449685845415 12.2596316550535959777 4.9654151139861344433 1.2412466998627067483 6.9250651670121534664 7.8853212351520882706 1.3578453757927009260 10.3595117984070093087 7.9092238523818574336 1.3466316096604988850 13.8980541938099868560 7.7913758923771094800 1.2371005804035306586 3.4106088760673838323 2.0912731049095363289 7.2049584520768403806 6.7442728419900808134 1.9393616772795934100 7.3234989814244233486 10.2902528496972589522 2.0295918192491964049 7.3367070834990126826 5.0850772639897856564 5.2082012485446851358 7.3596069584866139479 8.6088271034524392888 5.1105317526732330080 7.2858865053179728832 12.0909438178359387450 4.8905829127038726867 7.2323193416724151916 6.8997389748696189571 8.1182598495036177866 7.3849385237899349832 10.2362715148510687868 8.0127660512131324566 7.3048851792954634377 13.6512324929147723651 8.0839188608544070291 7.4043395637908897555 3.2925268755019434508 2.0036301750670504340 13.2108661542299294922 6.7317906514440357668 1.9917952462364307831 13.1562143517385106151 10.1446790206760670827 2.0214004728951744383 12.9005894676141199540 5.0283569772049627744 5.0330944346816597346 13.0382861185135912052 8.4163791790001543092 5.0156732762063302999 13.0222789484496832557 11.8570850041952464693 4.8871810420869028491 13.1179545911595329954 6.6883015907377103559 7.9605025757871432646 13.1456128817289723543 10.1471285455926878427 7.9544418747142779935 13.0849080947106557460 13.6479556040993301735 7.9588911633896310960 13.0947923035479334430 1.8887021625843958272 0.6630424878298126767 16.0071000872079345356 5.2231775679891239150 0.9901233953604623439 16.1286671088189663692 8.7843843011103235341 0.9633649972706573861 16.0650757829366632734 3.8140392441626183029 3.8913460850063681384 16.0845642938122885823 6.9338882382472233346 4.0062308366579122421 16.2166628087331261554 10.6146655426053726501 3.8911133254378382773 15.9589211294418102938 5.2537753407379197412 6.7501886285976944180 16.0166868950713450204 8.7757058161900900473 6.8654762333486178960 16.0706564247403669299 12.1867179733270880604 7.0089456504738141263 16.0255039592376924418 1.5083339804298154796 0.9749582142416501895 4.5381114369050230550 5.1239816493711671797 1.0492264211847821542 4.3470225641093254154 8.5901273459893641160 1.1396356089763310937 4.6583314070461963041 3.3934179495787644143 4.1642835359805978612 4.4548391642228368781 6.8650268778338201514 4.0514130498259435242 4.4883754975698435530 10.2021848113834643357 4.0651190074958973852 4.5079514793201305167 5.0082612976325275866 7.0412544690439400341 4.5795026547970500985 8.6471263600151182516 6.9854816955078131713 4.4872383761991825324 11.9955983793230664958 6.9392162551170084583 4.4692718585427533284 1.6379678211155435097 1.0263891265955911170 10.2852627976206729699 5.0916365066343658441 1.0064344697397278328 10.3985725686632175524 8.4471740090487994479 1.0099348155587688503 10.1570829778848761293 3.3060788324006997740 3.9847363857333153447 10.3041215181986967053 6.7377292546677480800 3.8957416599351386566 10.2634475614789320019 10.2129872088360258431 3.9475575208062623211 10.2974912258990016767 4.9629791257855053743 7.0675115388322966581 10.1691714527637397936 8.4358853672041291816 7.0644767121503146967 10.2678036110373049894 11.9446307363983521554 7.0083368946791990695 10.2981560045464650699 0.2422578129137631653 -0.1786966825930396685 -0.1502574685015332645 3.6298716864445466079 -0.0718510883468632122 0.0026941029397177930 7.0643596619761028776 0.0229894835378450929 -0.0288478944649002665 1.7142563365674863274 2.9923659653074330400 -0.0143802117951170507 5.2706562642041614453 2.9735930108764119240 0.1224417303576937205 8.8046296058810451512 2.9265934826156301263 -0.1402857887895908040 3.5503832718657895029 5.9389230570700233258 -0.1506773286999308625 7.0139446809167704799 5.7864565873920481565 0.0690844968113348418 10.4138184832044178307 6.0161097109108725434 -0.1408630965623874631 -0.0910450313735360894 0.1604161041723700110 6.1377612986248619720 3.4282391359730755021 -0.0084957242513298246 5.8100604137755533785 6.8132738802985937099 0.0093551441966698290 5.8399054762116469064 1.8077409396273309561 2.9978000060034886154 5.7655377385704760229 5.2129590979074666990 2.9892147588411859260 5.8628578337240480067 8.6862891536186541686 3.1592098144876579191 5.9338841839529719024 3.3955007739415017376 6.0334413464752287837 6.0273905489710983829 6.7467793353519009969 6.1637598479785049577 5.8707127182690701517 10.3513506936323675944 6.0103265308620219542 5.8761359124983716384 -0.0589169526530493870 -0.0595954018346708594 11.7423876161594655798 3.3336897969442782497 0.0285578086003605326 11.7266603528944894919 6.9220162042988953033 0.1398885006862801428 11.5517885802618991420 1.7652756675518117557 2.8934341963912619811 11.8042645128983085812 5.1010535784796342540 2.9736109154586065628 11.6679673959934948613 8.3828815610734714880 3.1063196786848590314 11.6439828821600332986 3.2976021880685908449 5.9082793646439935031 11.7055973662748780129 6.6122611667732957841 6.0196279613121079777 11.6921443457512221897 10.2083094881622997718 5.9137044530489522032 11.5833130834915856155