-1060.631800
-1060.647700
-1060.437300
-1060.293400
-1060.291600
-1060.310000
-1060.000200
-1060.007300
-1060.735700
-1060.908100
-1060.784900
-1060.989300
-1060.632700
-1060.789500
-1060.859100
-1060.543200
-1060.437100
-1060.703800
-1060.632400
-1060.526100
-1060.406900
-1060.662200
-1059.645500
-1060.845000
-1060.453800
-1060.846000
-1060.156400
-1060.980400
-1060.662800
-1060.418600
-1060.548500
-1060.718500
-1060.260400
-1060.394500
-1060.287400
-1060.557700
-1060.195700
-1060.713200
-1061.241800
-1060.931300
-1060.331300
-1061.241600
-1060.772400
-1060.756100
-1060.975400
-1060.353400
-1060.857700
-1060.654300
-1060.603500
-1061.160400
-1060.176200
-1060.859000
-1060.382200
-1060.499900
-1060.634300
-1060.257600
-1060.565300
-1060.438200
-1060.755900
-1060.912900
-1060.642800
-1060.413700
-1060.232000
-1060.733200
-1060.199900
-1060.989000
-1060.931900
-1060.409200
-1060.127000
-1060.355000
-1060.605200
-1060.390500
-1060.800000
-1060.235100
-1060.262700
-1060.788300
-1060.617000
-1060.236400
-1059.996100
-1060.518200
-1060.732600
-1060.561700
-1060.793300
-1060.757200
-1060.679700
-1060.750800
-1060.424700
-1060.198600
-1060.777900
-1060.959400
-1060.203100
-1060.416700
-1060.708100
-1060.572800
-1060.872500
-1060.337500
-1060.750300
-1060.672400
-1060.412300
-1060.882100
-1060.840000
-1060.592800
-1060.479200
-1060.261500
-1060.567500
-1060.502100
-1060.827700
-1060.657700
-1060.811600
-1060.770200
-1061.095800
-1060.478800
-1060.986800
-1061.126000
-1060.711400
-1060.923400
-1060.983100
-1060.682600
-1059.650300
-1060.613600
-1060.575800
-1060.277300
-1061.012200
-1060.616700
-1060.234500
-1060.608400
-1060.707100
-1060.843500
-1060.839800
-1060.130500
-1060.557200
-1060.567700
-1059.984600
-1060.390000
-1060.154700
-1060.697400
-1060.447300
-1060.303500
-1060.421300
-1060.818500
-1060.368700
-1060.445100
-1060.834300
-1060.436500
-1060.461800
-1060.926500
-1060.569400
-1060.721400
-1060.450000
-1060.292400
-1060.163100
-1060.482300
-1060.553600
-1060.600000
-1060.117200
-1060.780200
-1060.331000
-1060.267400
-1060.645200
-1060.684800
-1061.076900
-1060.444300
-1060.280900
-1060.796700
-1060.961300
-1060.893800
-1060.242400
-1060.799000
-1059.924000
-1060.710000
-1060.918300
-1060.756100
-1060.937000
-1060.823800
-1061.061000
-1060.813900
-1060.929700
-1060.735000
-1060.613200
-1060.552600
-1060.860700
-1060.574700
-1060.281200
-1060.481000
-1060.091900
-1060.460800
-1060.533200
-1060.385500
-1060.507200
-1059.753800
-1060.711000
-1060.479800
-1060.414100
-1060.380400
-1061.012600
-1060.810800
-1060.455900
-1060.220100
-1060.889800
-1060.241200
-1060.311700
-1060.878200
-1060.608900
-1060.847600
-1059.997600
-1060.444900
-1060.709900
-1060.770100
-1059.989700
-1060.481000
-1060.128400
-1060.496500
-1060.276800
-1060.357500
-1060.095500
-1060.280300
-1060.824400
-1060.223900
-1060.668600
-1060.323900
-1060.307100
-1060.472800
-1060.379600
-1060.482500
-1060.244500
-1060.876900
-1060.211300
-1060.396500
-1060.686300
-1060.742100
-1060.814600
-1060.827300
-1060.389000
-1060.656700
-1060.976800
-1060.357800
-1060.586000
-1060.606400
-1060.346900
-1060.378900
-1060.254500
-1060.534600
-1060.639800
-1060.185700
-1061.033700
-1060.389700
-1060.623400
-1060.553800
-1060.882500
-1060.230100
-1060.967200
-1060.347500
-1060.148900
-1060.747900
-1060.540800
-1060.040300
-1060.370500
-1060.740100
-1060.728100
-1060.449300
-1060.755900
-1060.197100
-1060.674000
-1060.356400
-1060.483400
-1060.621100
-1060.341700
-1060.445300
-1060.694300
-1060.769800
-1060.626400
-1060.393400
-1060.642700
-1060.514400
-1060.409800
-1060.443200
-1060.461700
-1060.228900
-1060.615500
-1060.284500
-1060.419300
-1060.981200
-1060.602000
-1060.770000
-1060.856200
-1060.065800
-1060.750300
-1060.303300
-1060.224500
-1059.929800
-1060.558600
-1060.718300
-1060.584900
-1060.020000
-1060.473800
-1060.032400
-1060.770600
-1060.251000
-1060.999800
-1060.740300
-1060.882900
-1060.904100
-1060.500700
-1060.778700
-1060.089500
-1060.257400
-1060.642600
-1060.397600
-1060.572600
-1060.600800
-1060.360200
-1060.361000
-1060.228300
