    1.060701     0.299947    -0.186243    -1.115139    -0.463209     0.781559    -0.768524    -0.577445     0.759597     0.981308    -0.244379     0.151480     0.079715     0.094159     0.092198     0.093257     0.177239    -0.054036     1.241327    -0.405017     1.176900    -0.371797    -0.034055     0.452701    -0.739018    -0.715986     0.125815     0.378130    -0.362833    -0.049665     0.251442    -0.083225     0.187335     0.045905    -0.105430     0.667571    -0.772381    -0.490515     0.432714     0.006807    -0.233184    -0.311735     0.770887    -0.073648    -0.611586    -0.112514     0.128010    -0.661388     0.046008     0.433992     1.229358     0.524817    -0.604839     0.384613     0.140760     0.115114    -0.272629    -0.518538    -0.225439     0.429028    -0.787137     0.236626     0.628884     0.138329     0.110758     0.185107     0.339269     0.944471     0.238293    -0.139193     0.261911     0.110129    -0.053583    -0.260673    -0.729967     0.004636    -0.391666     0.100654    -0.070624     0.695173     0.818147     0.162151     0.413658    -1.005847    -0.299519    -0.705641    -0.253518    -0.333933     0.315324     0.170360     0.315796    -0.114453     0.449409    -0.194352     0.623489     0.139557    -0.177864     0.417205    -0.368367    -0.454416    -0.465292     0.801445     0.492000    -0.382305     0.421595    -0.513656     0.343181    -0.834681    -0.417655     0.456259     0.010359    -0.961937     0.717741    -0.757142    -0.581141     0.390301    -0.664502     0.346685    -0.004956     0.435759     0.331552    -0.048904     0.334850    -0.581859    -0.141261    -0.360361    -0.471461     0.106201     0.397487    -0.012852    -0.094559    -0.788235     0.371454    -0.044662    -0.353598    -0.195620    -0.868036     0.108246    -0.404392     0.216387    -0.150473     0.522591     0.304484    -0.250698     0.458001     0.403851    -0.215268    -0.009274    -0.521339    -0.493697    -0.495740     0.104283    -0.073713     0.109259    -0.274148    -0.918391     0.059263    -0.283760     0.377275    -0.317879     0.362984    -0.460241    -0.354165     0.841345    -0.859695    -0.620357     0.739230    -0.317691     0.801733     0.134521    -0.051645     0.512497    -0.022815    -0.256807    -0.389144     0.683972     0.211403     0.297462     0.213844    -0.730447     0.256107    -0.727933     0.052767    -0.069661    -0.091377    -0.373625     0.013592    -0.065885    -0.223218     0.351828    -0.745394     0.183709    -0.272871    -0.089923     0.234793     0.900829    -0.672017     0.284602     0.368721    -0.844547     0.472212    -0.106383     0.516850    -0.156772    -0.217010     0.457691    -0.545020     0.602121     0.698658     0.136006    -0.158195     0.012358     0.165983    -0.373344     0.342496    -0.109558     0.578230     0.184165    -0.105268    -0.846065     0.548650     0.105802     0.420069     0.741209    -0.089762     0.753595    -0.748441    -0.135709    -1.073917    -0.704581     0.391462     0.660976    -0.387448    -0.719566     0.325568    -0.676786     0.164486     0.413088     0.763735     0.613123    -0.175360    -0.553466    -0.114008 
   -0.641721     0.028497     0.378107     0.789197     0.222200    -0.009269    -0.411720    -0.332071     0.348967    -0.584916     0.357251     0.232587     0.314645    -0.398852    -0.358398     0.228775     0.043494     0.875474     0.237401    -0.325047    -0.522182    -0.130010    -0.145264    -0.121997     0.362858     0.387981     0.881318    -0.082121     0.432749     0.033329    -0.176392    -0.114662    -0.260164     0.226728     0.305604     0.418255     0.477924    -0.496620     0.285653     0.269683     0.729002    -0.165955     0.026460     0.096486    -0.612987     0.279699     0.129010    -0.842799    -0.065465    -0.647463    -0.423797    -0.680178     0.493279    -0.886052    -0.268065     0.238312    -0.019869     0.891496    -0.163682    -0.435450     0.097158    -0.150523    -1.146631    -0.430964    -0.164265    -0.413700    -0.085671    -0.305910    -0.079095     0.565160    -0.319041     0.276770     0.279330     0.422941     0.123583    -0.033290     0.202108    -0.053108     0.283623     0.145826    -0.931540    -0.195806     0.087697     1.038413    -0.060514    -0.538880     0.176007     0.339831    -0.086539     0.622552     0.498177    -0.113559     0.224930    -0.453884     0.585435     0.317341     0.347167    -0.073867     0.803197     0.522336     0.381745     0.654140     0.182674    -0.043930     0.699296    -0.291303    -0.032999     0.030798    -0.359177     0.245690     0.829660     0.275291    -0.372985     0.365137    -0.026743    -0.116953    -0.060986    -0.182854     0.174103    -0.737180     0.287129    -0.234455     0.205254     0.694189     0.224721    -0.579813    -0.490248     0.627683    -0.037534     0.038118    -0.548630     0.309078     0.495774    -0.572970    -0.285345    -0.200031    -0.435591    -0.359318    -0.288114     0.077865     0.719865    -0.292502     0.258725     0.732093    -0.475506    -0.052261     0.072882     0.287395    -0.504439    -0.207476    -0.173586    -0.290543     0.207846     0.710999     0.912535    -0.841278    -0.032958    -0.657382    -0.658843     0.290830     0.338955    -0.263977    -0.111258     0.068170    -0.610869     0.237887     0.027078    -0.711798    -0.263197    -0.008862    -0.370636    -0.009311    -0.328333    -0.438046     0.358162    -0.555746    -0.390730    -0.413834    -0.493541    -0.431591    -0.128209     0.300501    -0.872638    -0.126619     0.083145    -0.811199    -0.248980     0.658157    -0.295778     0.452370     0.425540     0.228641    -0.203660    -0.127514    -0.004052    -0.702795     0.149827     0.990199     0.110182    -0.500956     0.203396     0.129984     0.059138     0.087405    -1.149954    -0.152813     0.102030    -0.255127     0.017912    -0.042143     0.356253    -0.217126     0.041038    -0.025960     0.471447     0.796293    -1.209580    -0.674126     0.334698     0.533865     0.003403     0.394518     0.381406     0.154950     0.036570     0.454028     1.520027     0.184492     0.109256     0.132557    -0.278164    -0.481782     0.586108    -0.785285    -1.408274    -0.199939     1.354143    -0.034353    -0.173332     0.474671     0.463194    -1.136183     0.267050 
    0.363879     0.427367     0.205765    -0.704579    -0.614746     0.580465    -0.876267    -0.733129     0.025109    -0.356076    -0.333977    -0.625233     0.639529     0.157674     0.888972    -0.156022     0.828082    -0.430899     0.489895     0.415677     0.189879    -0.576588     0.340128    -0.069043    -0.373158    -0.067298    -0.190938    -0.322431    -0.378720     0.097901    -0.152367    -0.262959    -0.855520     0.013405    -0.080747     0.440168     0.487074     0.364945     0.481790    -0.094849     0.248742     0.147006    -0.654777    -0.812648     1.032283     0.154330    -0.295485    -0.005451    -0.180725     0.553454     0.098408    -0.038393     1.123704    -0.017925     0.470243     1.158729     0.828229     0.227143     0.531187    -0.264433    -0.045251    -0.428195     0.239338     0.231140    -0.374532    -0.888518    -0.514894    -0.278147     0.568334    -1.050092    -0.422421    -0.002449    -0.391683    -0.068770     0.595709     0.171614    -1.075509     0.472104    -0.418684     0.002664     0.111093     0.096527    -0.116517     0.394498     0.654563     0.522658     0.240390     0.507842     0.319266     0.222188     0.467092     0.475491     0.092310    -0.413765     0.334607    -0.844464     0.433210    -0.183258    -0.294662     0.032798    -0.050018     0.294656     0.166520    -0.616821     0.379964    -0.707839    -0.184102     0.267781     0.186844    -0.763131    -0.544609     1.420971     0.431473    -1.230453    -0.572497     0.030619     0.632561     0.078014    -0.130508    -0.238521     0.690723     0.353165     0.125804    -0.571514    -0.637187    -0.031606     0.291788    -0.137362    -0.495055     0.755514    -0.258208     0.049421    -0.001150     0.822353    -0.772908    -0.556709     0.064046    -0.340155    -0.451125     0.368521    -0.409047     0.642974     0.493887    -0.582417    -0.429172    -0.375586     0.605320     0.071603     0.429944     0.550124    -0.265023    -0.101563     0.461379     0.717060    -0.608232    -0.937068     0.527999     0.261108    -0.221077    -0.333562     0.011231    -0.125624     0.069962    -0.234578    -0.293887    -1.176376    -0.101926     0.074970     0.618665    -0.368362    -0.432347     0.127250    -0.467808    -0.470403    -0.407963    -0.159831     0.220190     0.637780     0.038592    -0.383952     0.184565     0.124427     0.602733     0.009423     0.933235    -0.210222    -0.159391    -0.209890    -0.397763    -0.165021    -0.320161     0.279953    -1.025453    -1.287409     1.104197     0.083648     0.358790     0.473978    -0.293338     1.054047     0.041597     0.265292    -0.255867    -0.190090    -0.264445    -0.797712    -0.626204     0.941709    -0.229577    -0.655332    -0.561580     0.517991    -0.059345    -0.146006     0.218091    -0.557118    -0.266727     0.799707     0.291549    -0.329572    -0.671175    -0.504876     0.518721     0.137823     0.285260     0.543228     0.453849    -0.463351     0.386711     0.857715     0.210251    -0.338662    -0.483743     0.145233     0.506390    -0.458896     0.383923    -0.249173    -0.504796     0.425832     0.709260     0.376520    -0.195655 
   -0.387779    -0.091167     0.256803    -0.144278    -0.197747     0.090958    -0.020778    -0.107734     0.131216     0.389306    -0.308204     0.577075    -0.398003    -1.280063    -0.102916     0.135346    -0.262631    -0.162533    -0.104135     0.830155     0.018898    -0.708217     0.596880     0.040791     0.744603    -0.219226     0.056712    -0.285714     0.119847    -0.730940    -0.909163    -0.121094    -0.468313     0.440400     0.256162     0.492153     0.883934     0.272577     0.325983     0.033668    -0.086899    -0.419816    -0.158083    -0.280227    -0.125686     0.178726    -0.368188    -0.314668     0.094348    -0.027354    -0.200714    -0.861828    -0.655873     0.405802     0.044584     0.793697     1.293074     0.137330     1.189479     0.620841    -0.270963    -0.685557     0.110705     0.581567    -0.844622     0.413629     0.077547     0.343968     0.511805    -0.268583     0.091747     0.443870    -0.401464     0.527935     0.535827    -0.394665    -0.511118    -0.273499     0.079151     0.738450    -0.247433     0.187483     0.912475    -0.021409     0.307031    -0.424453    -0.544877     0.041877    -0.095239     0.518356     0.242075     0.378892     0.731128    -0.143958    -0.423794     0.341572     0.523824    -0.129313    -0.668142    -0.765652    -1.458426    -0.866355    -0.022464    -0.818553    -0.610853     0.451199     0.625099    -0.359650     0.314850    -0.406437     0.472234     0.371897     0.190866     0.415985    -0.138354     0.829854    -0.050020     0.862536    -0.060401    -1.212668    -0.431955     0.167781    -0.456569    -0.227337     0.309205    -0.015493     0.581165    -0.212393    -0.514356    -0.288275     0.826292     0.934352    -0.083802    -0.530694     0.490885    -0.058190     0.007369     1.036911     0.039265     0.006307     0.471517    -0.243671     0.003160    -0.053315    -0.605442     0.102861    -0.669856    -0.583189    -0.164274     1.158003     0.777913    -0.380813     0.401986     0.657451     0.187827    -0.739384    -0.112052     0.654133    -0.316413     0.082111    -0.251270    -0.147275     0.623367     0.905922     1.090617     0.173606    -0.067333     0.720162    -1.328498     0.045405    -0.689219     0.045403     0.504809    -0.028584     0.049132     0.471383    -0.411216    -0.377847     0.406165    -0.077437    -0.280013    -0.990384    -0.250134    -0.023547     0.708185    -0.055963     0.892122     0.147838     0.078200     0.082965     0.093563    -0.687060     0.396299     0.320443    -0.343234    -0.563619     0.777363     0.078003    -1.053390    -0.685165     0.546666     0.274318    -0.805760     0.147106    -0.047311    -0.223242    -0.117147     0.389447     0.007226     0.055581     0.052685     0.493170     0.216828    -0.445088     0.130655    -0.170952     0.383320    -0.149965     0.338943    -0.384569    -0.887908    -1.207165     0.152837    -0.345773    -0.003653     0.022797     0.381919    -1.113155     1.238653    -0.080972    -0.234702     0.281458     0.219267    -0.710031    -0.214208     0.047042     0.416105    -0.521627    -0.409656    -0.535018    -0.061885    -0.573456    -0.059461 
   -0.356677    -0.422016     0.611311     0.643656     0.017138     0.493299    -0.159219    -0.226653     0.139699     0.172474     0.270394     0.326032    -0.009638     0.464304     0.505143    -0.798168    -0.537717     0.445930     0.326578    -0.005123     0.251351     0.958301    -0.586887     0.477210    -0.016618     0.859069     0.709013     0.036166    -0.283776    -0.032435    -0.168701     0.784296    -0.484777     0.162184     1.166374     0.719107     0.777713    -0.841916    -0.210462    -0.261536    -0.312956     0.073700    -0.745851     0.415224     0.516230     0.079637    -0.542759    -0.725070     0.179373     0.013445    -0.485276    -0.302537    -0.360580    -0.544103     0.621762    -0.146165    -0.157148     0.146763     0.227363    -0.670474     0.113263    -0.304466     0.684017    -0.054182    -0.411637     0.501147    -0.048371    -0.042238    -0.070748     0.504082     0.828322    -0.544893     0.267161    -0.287505    -0.351733    -0.000828    -0.086322    -0.461497    -0.033498     0.131195    -0.498707    -0.148617     1.079735    -0.145687     0.525651    -0.251499    -0.112533    -0.470152    -0.177457    -0.350997    -1.468208    -0.020534    -0.409874     0.790720    -0.922790    -1.495289    -0.932746     0.133600    -0.041562     0.906249     0.828205    -0.182374    -0.562420     0.058379    -0.385051    -0.199569    -0.397813    -0.122833     0.783045     0.189182    -0.216163     0.024070     0.180599     0.960943    -0.236066    -0.717708    -0.561949     0.009781    -0.745238     0.217893    -0.154973     0.283985     0.602880     0.658295    -0.154052    -0.516607     0.633507     0.151974    -0.091986    -0.668519     0.393542    -0.108382     0.189994     0.652602     0.247905    -0.148777    -0.046406     0.385999    -0.728057     0.271103    -0.844882     0.371536     0.177679     0.484203     0.195507    -0.163446     0.092864    -0.639315     0.967379    -0.453048    -0.302178     0.206108     0.028161     0.465460    -0.699210     1.024106     0.010479    -0.335581     0.483792    -0.029983    -0.388131     0.156333    -0.210240    -0.179828     0.139139    -0.628567     0.542240    -0.368336    -0.102388    -0.102692    -0.294997     1.523501    -0.002320    -0.096144    -0.401825    -0.391481    -0.110923    -0.215199    -0.117320     0.075909    -0.340220    -0.195944    -0.204560     0.029559     0.800429     0.455242     0.648101    -0.202053     0.372789    -0.174009    -0.800481    -0.721734    -0.187447     0.204886     0.114046     0.307828     0.143277     0.031828     0.220216     0.144458    -0.239614     0.138415    -0.075011    -0.141587    -1.019108    -0.108897     0.499666     0.004998     0.272297    -0.305490    -0.103168    -0.454877     0.179558    -0.152494     0.145662     0.623033    -0.565998     0.586281    -0.430951     0.564461    -1.010285     0.217311    -0.141185    -1.002031     1.129157    -1.023742     0.243010    -0.611465    -0.151400    -0.089401     0.389116     1.086214    -0.270366     0.276916    -0.726980     0.677784    -0.183756     0.872806     0.300179    -0.790405    -0.160131     0.609872     0.134521 
   -0.249767    -0.874694    -0.199345     0.050362    -0.382879     0.263830    -0.372419     0.323743     0.348397     0.060385     0.461086     0.024344     0.435504    -0.463225    -0.427273    -0.185541     0.748712     0.266530    -0.652167    -0.548511     0.133467    -0.133766     0.154086    -0.076543     0.606033    -0.315827     0.092740     0.478756    -0.150506     0.393091     0.264458     0.021422    -0.084959     0.306532     0.118219     0.592003    -0.296387     0.338916    -0.086999     0.283104    -0.103447    -0.729897     0.155637     0.569623     0.012827     0.098770    -0.594035    -0.790131     0.093834     0.180281     0.039603    -0.086447    -0.351261    -0.199290     0.035871     0.466923     0.847997    -0.075048    -0.454044    -0.331722     0.115374     0.084874    -0.036518    -0.357555     0.525329     0.610349     0.203199    -0.251608    -0.880001    -0.002817    -0.733966    -0.383824     0.098472    -0.314859     0.822333     0.323216     0.811470     0.225776     0.260782     0.324533     0.443348     0.112694     0.358411     0.573812    -0.359035     1.170776    -1.097043    -0.140524     0.172413     0.090794     0.813081     0.461895     0.055927     0.122775     0.621091    -0.769388    -0.845895     0.140549     0.605377     0.367128    -0.293241     0.072582    -0.401147    -0.936037     0.368384     1.045580     0.655201    -0.837053     0.140612     0.265870     0.179443    -0.170494     0.068268     0.227063    -0.869864    -0.202063     0.261137    -0.697684     0.357922    -1.041383     0.499776     0.980220    -1.450088    -1.108510     0.433182     0.346092     0.098352    -0.398234     1.155225     0.436266    -0.056915     0.034104    -0.378867     0.392028     0.033467    -0.418150    -0.090704    -1.328205     0.344633    -0.289729    -0.440274    -0.611695     0.668592     0.059143    -0.151420    -0.183341    -0.148656     1.139881    -0.481726    -0.968040     0.259869     0.114433     0.172407     0.340335    -0.397396     0.564254     0.666823    -0.079568     0.179285    -1.277821    -0.275256    -0.316633     0.064966    -0.033546    -0.941067     0.035854    -0.246634     0.200483     0.180729    -0.142318     0.194672    -0.096683    -0.349241    -0.145399    -0.755283     0.069498     0.139202     0.834645    -0.073741    -0.151761    -0.579534    -0.353856     0.015500     0.368037     0.288539    -0.330317    -0.388011    -0.801048     0.714155    -0.468908    -0.753067     0.529958    -0.307580    -0.315884    -0.253513     0.394127     0.466585     0.415454    -0.531661     0.286910    -0.490346     0.291021    -0.308595     1.020071     0.959972    -0.572184     0.302699     1.302422     0.193077     0.498592    -0.499626     0.344092     0.303569    -0.670895    -0.954484    -0.023281    -0.022815    -0.775653     0.107909    -0.063480     0.098670    -0.148561    -0.522434     0.139277     0.315243    -0.000929     0.273511     0.350559     0.073665     0.047272     0.426843     0.098055     0.284775    -0.057897     0.415044     0.259048     0.225045    -0.177130     0.663013     0.073518    -0.348648    -0.501014    -0.763193 
   -0.711481    -0.019694    -0.000350     0.086842     0.492437    -0.603485    -0.098190    -1.308453     0.562676    -0.070797    -0.580332    -0.621689    -0.780541     0.383237    -0.542398     0.165701    -0.087221    -0.129640    -0.547855    -0.606315    -0.061080    -0.115107    -0.617304     0.607229    -0.024351     1.564403    -0.004944    -0.737773     0.731477     0.168854    -0.863395    -0.330002     0.809169     0.210972     0.568787     0.192259    -0.443229    -0.307224     0.128000     0.305543    -0.893079    -1.074677    -0.164351    -0.839918    -0.475472     0.060927    -0.130485     1.014243    -0.047792     0.433665    -0.226183    -0.485833     0.505502    -0.194729    -0.568854    -0.150483    -1.044272     0.766582    -0.339534     0.363379     0.188157    -0.451808     0.300369    -0.520241    -0.641752    -0.576198     0.075802     0.153213    -0.793068     0.100265    -0.371227    -0.667772    -0.194360     0.104042     0.371874     0.293378    -0.038777    -0.975066    -0.129248     0.410845     0.309282     0.465137    -0.019101    -0.459211     0.557748     0.105599     0.007437    -0.516577     0.539640     0.377952     0.165953     0.104249     1.061303     0.264068    -0.673928     0.148503    -0.018542     0.060388     0.112952     0.254827     0.373972     0.789229    -0.521476     0.097907     0.923632     0.225127    -0.343668    -0.152156     0.039194     0.153191     0.197012    -0.002151    -0.085854    -0.083866    -0.207837     0.170019    -0.118868    -0.291506     0.106927    -0.984401     0.871172    -0.197015    -0.816757     0.555078    -0.154531     0.721235     1.274318     0.642139    -0.734018     0.245931     0.691573     0.455683    -0.063149    -0.373640     0.506303    -0.264815     0.595289    -0.753228    -0.118655    -0.134744     0.393407    -0.301628     0.538971    -0.253113    -0.523381     0.030005     0.647199    -0.368133     0.633343     0.857270     0.347893    -0.145250     0.397515     0.003912    -0.639867    -0.112265    -0.089489     0.574926     0.261714     0.039716    -0.822880     0.313707    -0.104118    -0.195266     0.469747     0.378556     0.214496    -0.389165     0.172535     0.148250    -0.304300     0.641765     0.780240    -0.638831     0.201711     0.245308    -0.127842    -0.243274    -0.165088    -0.231753    -0.717823    -0.667485    -0.991288     0.348578     0.475412     0.192696     0.303250    -0.134788     0.280991    -1.228763    -0.285436    -0.650163     0.742256     0.892766    -0.876369     0.747165    -0.182100    -0.403284    -0.138068    -0.018854     0.445556    -0.142764    -0.362604     0.569172    -0.231534     0.298292    -0.839088    -0.541159     0.716141     1.172967     0.182483    -1.224256    -0.035413     0.224164    -0.225922     0.118022     0.247278    -0.745812     0.762336     0.891548    -0.375172     0.351703     0.386283    -0.240153     0.931178    -0.119472     0.726460     0.022007    -0.358979    -0.053923    -0.222042     0.205410     0.688188     0.392597     0.502939     0.272384    -0.284799     0.262136     0.354206    -0.325093    -0.385606    -0.396948     0.069979 
   -0.215418     0.341605    -0.597023     0.072109    -0.684739    -0.650622     0.100926    -0.288271     0.065721    -0.375995     0.257639    -0.243262    -0.176351     1.283333     0.054408     0.154059     0.644110     0.060340    -0.461862     0.514817    -0.453074    -0.240333    -0.115741     0.531856    -0.533028    -0.134966    -0.243579    -0.258539     0.056936    -0.434850    -0.195099    -0.348632     0.011212     0.321155     0.006790    -0.753103    -0.272329     0.031207     0.060243     0.918536     0.014296    -1.159197     0.087758    -0.249625    -0.742148     0.510710    -0.296841     0.138815    -0.364347    -0.556038     0.589467     0.004957     0.450294     0.584778    -0.098525     0.759467    -0.069051     0.398579     0.629369    -0.124211     0.337147     0.146929    -0.271641     0.717680    -0.124081    -0.572481    -0.136496    -0.003429     0.531617     1.039592     0.042212    -0.248886    -0.900110    -0.106477    -0.970320    -0.516192    -0.137922     0.145183    -0.263426    -0.489107     0.063349    -0.663191    -0.518990    -0.850259     1.255226     0.424765     0.691351     0.386556    -0.528279     0.922819     0.351467     0.016259    -0.322135    -0.048360    -0.317373     0.379178    -0.243961    -0.768591     0.075739     0.139997    -0.686214    -0.128133     0.477947    -0.266757     0.066562    -0.934283     0.436069    -0.170829    -0.949657     0.920334    -0.508858     0.012009     0.678687     0.963240     0.604130     0.185720     0.565541    -0.698370    -0.350126    -0.021347    -0.733130     0.861914     0.269556     0.259481    -0.486576    -0.480392     0.682865    -0.379333    -0.004652    -0.322707    -0.481142     1.200136    -1.461537     0.190375     0.225023    -0.576449    -0.786594    -0.054063     0.854060     0.623341    -0.421454     0.629249    -0.809755    -1.400518    -0.019504     0.130625     0.382204     0.084111     0.399884    -0.271921    -0.151141     0.398090     0.374861    -0.354263     0.163141     0.210194    -0.024746    -0.377673     0.372642    -0.248195    -0.422916    -0.100957     0.281687     0.746945     0.527802    -0.103788    -0.096615     0.408220     0.414214     1.290177    -0.600801    -0.768483     0.313337     0.523142     1.123905    -0.561264    -0.080217    -0.340998    -0.456693    -0.582182     0.359763    -0.005651     1.286255     0.274854     0.222374    -0.032660    -0.277484    -1.216535    -0.232030    -1.330557    -0.048163    -0.289408     0.925986    -1.176972     0.194662     1.333755     0.337064    -0.725600    -0.477357     0.932768     0.640430     0.135189     0.087482    -0.094218     0.571345    -1.082428     0.345672     0.341878    -0.489165     0.193064     0.132871     0.853159    -0.516346     0.184276     0.298017     0.431106    -0.580913    -0.104247     0.575501    -0.059990    -0.699050     0.571658     0.147235     0.292243    -0.109884     0.239937     0.410428     0.438184    -0.271385    -0.069368     0.513683    -0.276400     0.636308     0.589405    -0.087729    -0.516576    -0.948166    -0.041771     0.318345    -0.175771     0.187194    -0.107938    -0.118575 
    0.514992     0.381879    -0.045496     0.062285     0.450083    -0.319081     0.100982     0.579294     0.340314    -0.459832    -0.370518     0.484015    -0.546760    -0.048319     0.792325    -0.456491     0.050944    -0.372742    -0.251111     0.498709    -0.157364     0.075574     0.088372    -0.606154    -0.182729    -0.103731     1.008184    -0.343144    -0.431926     0.321768    -0.059760     0.052267     0.277393     0.428079     0.409305     0.373409    -0.209597    -0.440884     0.096469    -0.581520     0.021891     0.021529     0.144580     0.226208    -0.939210    -0.396214     0.096168     0.175211     0.247316    -0.277018     0.947742    -0.225253     0.973682     1.062835    -0.441246    -0.234189     0.423381    -0.002239     0.934682    -0.009888    -0.220279    -0.463158    -0.934175     0.181408    -0.178067    -0.315199    -0.100445    -0.175449    -0.144613     0.384311     0.130025    -0.226656     0.040278    -0.346452    -0.060854    -1.412644    -0.321612    -0.003036     0.419338    -0.600239     0.222250     0.972125     0.148541    -0.405581    -0.542460     0.023378    -0.490990    -0.061159     0.020015     0.163299    -0.449972    -0.846506     0.463500     0.027086    -0.517840     0.720389    -0.055241     0.317005    -0.440824     0.391868     0.115200     0.353250     0.079156     0.568376     0.055119    -0.541284    -0.477370    -0.625062    -0.362149     0.235807     0.520450     0.134515     0.401075     0.210908     0.126393    -0.445729    -0.542185    -0.118409     0.302090     0.907820    -0.247285     0.768898    -0.452138     0.334609    -0.060469     0.316574    -0.275547     0.032701     0.460672    -0.397255    -0.412240    -0.593486     0.713161     0.316543     0.562907     0.386260    -0.364328    -0.730339     0.328971    -0.691483     0.111105     0.777652     0.651276     0.018081     0.086241     0.183693    -0.232434     0.276978     0.679061     0.109394     0.448069    -0.811226     0.559025    -0.749862     0.512416     0.114140    -0.219868     0.631917     0.727292    -0.223828     0.114925     0.488870    -0.372049    -0.372758    -0.290189     0.135477    -0.561474    -0.253230     0.127634     0.681003     0.708108     0.301528    -0.678899     0.076440     0.627540     0.237258     0.071581    -0.326165    -0.865879    -0.462811     0.822517     0.051395     0.047052     0.383053    -0.214328    -0.726782    -0.369071     0.771120     0.022841     0.529285    -0.460977    -0.739999    -0.760213     0.812747    -0.330686     0.056399    -0.034895    -0.048385    -0.056014     0.122149    -0.653480    -0.171735    -0.655405    -0.286929     0.608016     0.167156     0.252731    -0.492919    -0.193093    -0.926915     0.560497    -0.137622    -0.351514     0.335042    -1.372761    -0.223818     0.735989     0.644412    -0.387332    -0.082015    -0.080481    -0.098617    -0.422230    -0.318512    -0.205656    -0.554383    -0.084029     0.527675    -0.075858     0.592163     0.132773     0.308595     0.128813    -0.018002    -0.047224    -0.109665    -0.850530     0.340955    -0.392413     0.361343     0.308708     0.027300    -0.107778 