    16.89606     10.00148     10.33916      3.41105      9.84685     10.14236      7.03582      9.86983     10.24438      1.62354      0.96584     10.20662      4.97674      1.08268     10.00544     16.97809      4.07886     10.12539      3.41105      3.93873     10.14236      6.98734      4.13837     10.45251      1.79887      6.92362     10.11568      5.20217      6.84842     10.24665      1.80606     10.81488      1.50133      5.21514     10.90376      1.27480     16.93202      2.00131      1.31280      3.41104      1.96937      1.40300      7.01561      1.81482      1.13997      1.63033      4.95051      1.35616      4.96101      4.85181      1.55889     16.97494      7.86135      1.29766      3.41104      7.87747      1.40300      6.96042      7.85910      1.37826     16.80366      9.93730      4.48972      3.41105      9.84685      4.36968      6.98386     10.03979      4.58110      1.82077      0.97398      4.25598      5.16697      0.98704      4.45509     17.04372      4.07463      4.35320      3.41105      3.93873      4.36968      6.93376      3.84779      4.51218      1.60861      6.90629      4.39360      5.07627      6.86533      4.35240      1.70024     10.83001      7.18948      5.01873     10.76807      7.22979     16.60402      1.74988      6.67631      3.41104      1.96937      7.17568      6.74510      1.97783      7.33804      1.65449      4.79542      7.21255      5.09614      4.99701      7.17040     16.97600      7.75428      7.16841      3.41104      7.87747      7.17568      6.91714      7.82091      7.01463      0.17613     11.76565      0.21565      3.41105      0.00000      0.00000      6.62791      0.12809     11.20238      1.45166      2.99956     11.48980      5.06154      2.96352      0.01545      0.05350      6.01642     11.51216      3.41105      5.90810      0.00000      6.61642      5.80751      0.34920      1.73480      8.85448     11.52801      5.35684      8.82605      0.03644      0.32539     11.76205      5.64178      3.41105      0.00000      5.77268      6.71588      0.05652      5.99610      1.63430      2.95470      5.62963      5.25045      2.95208      5.86246      0.10482      5.77546      5.87384      3.41105      5.90810      5.77268      6.77156      5.91420      5.74195      1.60764      8.73839      5.86758      5.23803      8.93043      5.66546      8.41151      0.94520      5.02880      9.43161      0.53847      2.67631     10.09026     11.39852      0.07836      8.13091      5.07349      1.74578     11.85732      1.92024      2.62152     13.94042      3.22017      5.80676     12.52318      0.00133      0.90593     13.55752     11.59436      5.31515     10.40058      5.08437      5.02142     11.09504      4.50547      2.42944     13.61917     10.11903      3.11762      8.29530      6.43338      4.25587     12.90288      6.57535      1.82563     10.96043     11.35681      5.23224      9.57236      8.50049      3.22157     12.07274      8.07877      3.85391     10.51612      7.31265      0.89206     15.20738      5.34547      6.43283      8.42024      5.18133      6.83715      8.39134      0.73411     10.01525     14.20346      4.81890      8.81429      9.80208      3.17846      9.00573     12.48757      2.87039      8.21118     12.86686      0.53418      9.48982     10.56158      5.44063     10.52712     12.39169      6.44947      6.07488     12.86047      6.78588     10.01550     11.22691      9.12357     10.69646     14.04808      8.88039      0.36629      8.06602     11.10629      7.60735      9.49665      6.78994      8.51020      9.95974      9.32810      6.76423     12.28651      8.39411      7.86660     14.03923     10.49356      7.83259     15.40966     11.35948      1.14398     15.27069      5.35093      0.82706     14.40982      8.19339      5.38327     14.45827      1.21728      3.22129     15.87620      7.03574     10.01777      8.20153      1.90877      5.00744      8.72625      0.66493      4.11223     12.36893      0.83704      1.45129     11.02447     11.61936      0.30029     14.70091      2.57348      5.92994     13.29489      3.01967      6.53008     12.78980     11.14887      1.58720     10.32343      0.99228      2.73452      8.80554      1.13403      2.16523     12.75316      1.88022      3.06062     11.64166      2.87386      2.50072     12.57505     11.63859      5.41517     14.74043      4.48879      6.06463      9.15581      5.98223      4.53168     10.71197      4.74698      4.16765     10.27190      0.19865      5.43269     10.28966      4.76061      1.92745     11.76625      5.14662      2.19647      8.56555      7.33927      3.95232     12.30780      7.66892      4.70282     12.76943      7.03705      2.71628     12.70323      8.84851      3.72445     10.47856      8.50631      3.59186      9.13157      9.35363      3.40559     12.07483      6.82866      1.35428     11.19308      5.55993      5.46737      9.97252      7.74908      1.59063      8.82525      5.82243      7.52262     13.04893      0.40047     10.45704      9.11318      4.85482      6.25893     14.91599      5.33036      7.38544      8.59720      1.68596      9.91522      9.94503      3.90548      9.65765     14.94278      4.40211      9.31940      9.08852      3.48150      8.43900     11.53910      3.04138      8.34135     13.54460      4.08094      8.61600      9.17373      0.33352     10.51254     12.67220      2.01732      8.71267     13.87438     11.19261      6.18142     13.48558      6.09289      9.64721     12.13540      9.37232     10.87956     11.45534      5.81496     10.39759     10.22789      5.91792     11.32637     10.64973     10.52417      5.64883      7.55730     10.45401      8.16947      8.80268      7.43249      8.77856     12.34371      7.16322      6.79144     11.39936      8.74203      7.71696     13.33925      6.26858      5.92801     14.99969      8.67879      0.39235     13.44716      7.34594     10.59572     12.29581      7.90902      8.71842     13.49207      9.67937      7.82635      9.34720     10.02908      7.15102      9.37057      8.63159      6.54048     14.93182     10.23268      8.09738      9.64674     11.36116      0.96703      7.89880      4.13073      1.90989      8.04541      5.48504      2.60015     13.60987     10.63330      3.99633     14.55639      9.87482      2.99631     10.72141      7.99590      0.20675     13.34790     11.67265      9.00817     10.71547      9.93014     10.91030     13.66740      8.32733      1.07232      8.26628     11.80243      8.30092      9.81708      6.33224      9.31753     15.00435      0.10932      1.84333     14.79222     10.63727      0.86566     14.51422      5.81375      1.24979     15.11593      4.41757      0.81499     15.01082      8.80163      4.97112     14.91322      7.92898      6.18305     15.18092      1.85770      3.34949     14.28602      0.83787      4.10313     16.01039      8.02265     10.12394     16.19333      6.89386      9.10204 
    17.01687      9.99259     10.45607      3.41105      9.84685     10.14236      6.93021      9.79186     10.18811      1.57755      0.88324     10.20092      5.04385      0.98484     10.00274      0.07728      3.99960     10.06900      3.41105      3.93873     10.14236      7.16486      4.05347     10.52888      1.98136      6.93755     10.09243      5.20007      6.91464     10.22367      1.79643     10.80670      1.52784      5.21087     10.85450      1.23484     16.92478      2.04888      1.45898      3.41104      1.96937      1.40300      7.04371      1.73659      1.22253      1.64597      4.85389      1.34451      5.04385      4.84978      1.39334     17.03500      7.87403      1.27851      3.41104      7.87747      1.40300      6.91233      7.80340      1.63122     16.83373      9.81408      4.68976      3.41105      9.84685      4.36968      7.07860      9.95415      4.57274      1.72586      0.95813      4.29423      5.11533      0.90253      4.40181      0.19042      4.15605      4.35582      3.41105      3.93873      4.36968      6.98182      3.79968      4.60094      1.67764      6.81516      4.41756      5.04753      6.83139      4.37627      1.84666     10.73396      7.12298      4.99350     10.67350      7.21252     16.66349      1.65916      6.83393      3.41104      1.96937      7.17568      6.48381      1.78196      7.51372      1.72541      4.71820      7.35085      5.08828      4.91074      7.24778      0.10452      7.74880      7.20980      3.41104      7.87747      7.17568      6.71582      7.88316      7.35176      0.13565     11.74851      0.29713      3.41105      0.00000      0.00000      6.71084      0.10119     11.31902      1.44562      2.85087     11.50537      5.17021      3.01840     11.37033      0.18334      6.02653     11.44625      3.41105      5.90810      0.00000      6.66720      5.95195      0.20263      1.86817      8.84124      0.05103      5.44233      8.80835      0.08350      0.31841     11.65853      5.73701      3.41105      0.00000      5.77268      6.63620      0.00882      5.99722      1.60765      2.95934      5.69273      5.33772      2.93128      5.78623      0.24237      5.77656      6.03096      3.41105      5.90810      5.77268      6.66072      6.11372      6.03709      1.68699      8.77349      5.74875      5.21093      8.99441      5.49365      8.21037      0.90244      4.99197      9.18571      0.28689      2.62147     10.11727     11.24844      0.31017      8.27665      4.93786      1.54301     11.54348      1.69219      2.55346     14.40061      3.26074      5.67327     12.57346     11.50186      1.24904     13.55488     11.24148      5.37484     10.20258      5.11714      4.52290     11.24669      4.26169      2.18607     13.64123     10.10599      3.08078      7.99525      6.55167      4.38338     12.82722      6.23529      2.02838     10.85939     11.32984      5.31768      9.64269      8.50335      3.77199     12.18490      7.92886      3.75699     10.24446      7.44941      0.87631     15.22905      5.55986      6.25159      8.46403      5.13440      6.79368      8.55762      0.53146     10.06213     14.44726      5.03168      8.63298      9.69601      2.96215      8.45491     12.50724      3.02884      8.18122     12.95888      0.21017      9.40718     10.42436      5.44471     10.74057     12.36076      6.31899      5.71794     13.01827      6.92031     10.08988     11.44533      9.21357     10.78352     14.14156      8.37842      0.41864      7.87339     10.97891      7.57092      9.31428      6.62302      8.52767      9.68739      9.14054      6.88753     11.97369      8.03006      7.86214     13.75658      9.94567      7.78088     15.34805     11.39783      0.99533     15.59400      4.99027      0.97925     14.49358      8.15441      5.20204     14.69524      1.00731      2.99027     16.21267      7.03087      9.95654      8.00643      1.88665      5.01946      8.46701      0.64105      4.07890     12.39948      0.62854      1.61814     11.09420     11.40046      0.58086     15.05061      2.56526      5.96143     13.63224      3.24873      6.29843     12.95106     10.91449      1.99881     10.07578      0.78659      2.75894      8.58023      0.92583      2.12444     12.07905      1.55598      3.31329     11.48609      2.66462      2.34290     12.62654     11.47468      5.40332     14.99455      4.62910      5.92521      8.82337      5.97808      4.42306     10.54496      4.71767      3.70038     10.20260      0.20202      5.19182     10.57387      4.55859      1.59158     11.98817      4.99322      2.23099      8.42045      7.45072      4.16989     12.70551      7.74864      4.55903     12.55584      6.95294      2.71202     12.57885      8.78890      3.49738     10.53199      8.35612      4.16801      9.25410      9.32063      4.09144     12.31701      6.46267      1.23937     10.95917      5.54298      4.99265      9.97826      7.84853      1.72657      8.91133      5.73457      7.49130     13.14468     11.76547     10.27776      9.06421      4.92069      6.09298     14.94370      5.42616      7.22671      8.74229      1.47052      9.83000      9.46300      3.63509      9.09906     15.25061      4.72422      9.13397      8.83642      2.79311      7.98770     11.53751      2.98257      8.16409     13.73108      4.34838      8.72058      9.29894      0.21132     10.64832     12.80314      2.19851      8.63040     13.74099     10.70417      6.23758     13.74493      6.36608      9.66150     12.38226      9.45071     10.96164     11.36564      5.43642     10.47299     10.34074      6.24059     11.35162     10.40741     10.66819      5.88330      7.25750     10.31525      8.02239      8.57090      7.12507      8.81388     12.37767      6.68769      6.59787     11.06992      8.27741      7.61994     13.27631      6.11716      5.52814     15.13050      8.38516      0.47209     13.41388      7.53623     10.78562     12.04174      7.75948      8.78807     13.01541      9.24352      7.75119      9.27877      9.77867      7.49316      8.88461      8.66894      6.57351     14.56456      9.45221      8.00752      9.70374     11.35599      1.22792      8.10758      3.96551      1.45525      8.00632      5.04573      2.40824     13.75350     10.53290      3.95297     14.44110      9.64493      2.80039     10.79827      8.14341      0.36543     13.32362     11.34650      8.82432     10.80020      9.96932     10.91369     13.86633      7.94278      1.26148      8.09718     11.53407      8.40297      9.74039      6.21350      9.33156     15.04334      0.03525      1.85079     14.67775     10.82826      0.65606     15.06985      5.36266      1.70057     15.87181      4.06656      1.20868     15.02508      8.99799      5.11440     15.13102      7.48415      5.38849     15.10717      1.85829      2.74372     14.84411      0.83322      3.94683     16.18171      8.01489     10.02794     16.49978      6.88669      9.02312 
    16.91503      9.95892     10.36270      3.41105      9.84685     10.14236      7.08146      9.80028     10.35198      1.62472      0.88309     10.23585      5.07095      0.89262     10.05187      0.08858      4.03862     10.06601      3.41105      3.93873     10.14236      7.11568      4.05864     10.31467      1.93859      6.97201     10.04692      5.41081      6.89539     10.17574      1.90087     10.82946      1.64342      5.25988     10.85375      1.51443     17.04545      1.95017      1.34020      3.41104      1.96937      1.40300      6.95182      1.81766      1.14675      1.97857      5.00281      1.38083      5.21674      4.77877      1.54618      0.04787      7.60229      1.27581      3.41104      7.87747      1.40300      6.82315      7.70542      1.46618     16.82865      9.89927      4.58150      3.41105      9.84685      4.36968      6.93840      9.86218      4.67439      1.73331      0.87145      4.35455      5.15281      0.95603      4.42229      0.08196      4.04317      4.46069      3.41105      3.93873      4.36968      7.01201      3.78335      4.58359      1.71105      6.83400      4.31676      5.20332      6.81719      4.45105      1.70694     10.78589      7.48161      4.82608     10.66517      7.19429     16.72648      1.71807      7.02108      3.41104      1.96937      7.17568      6.54586      1.84762      7.33451      1.76025      4.73140      7.31460      4.97917      4.87689      7.22493      0.05209      7.74901      7.24976      3.41104      7.87747      7.17568      6.55051      7.79842      7.35154      0.19611     11.66227      0.27737      3.41105      0.00000      0.00000      6.61784     11.81609     11.32542      1.59761      2.88003     11.52958      5.20953      3.09521     11.40075      0.26576      5.87845     11.39819      3.41105      5.90810      0.00000      6.71345      5.77510      0.24248      1.82894      8.92984     11.50415      5.36575      8.86895      0.14949      0.35935     11.68339      5.87306      3.41105      0.00000      5.77268      6.67370     11.78548      5.94940      1.70694      2.85530      5.71975      5.19133      3.04125      5.73035      0.30832      5.79595      5.97162      3.41105      5.90810      5.77268      6.70847      6.06159      6.00326      1.73245      8.62412      5.83773      5.17621      8.88161      5.65033      8.27007      0.95269      5.10117      9.10359     11.78994      2.98637     10.10952     11.13385      0.31614      8.22444      4.96218      1.56198     11.31976      1.46527      2.73419     14.38264      3.22267      5.55837     12.52663     11.16931      1.06772     13.49076     11.06618      5.51761     10.04948      5.20443      4.35563     11.03772      3.86003      1.80718     13.94123      9.87271      3.04920      8.07809      6.71791      4.66808     12.96008      6.03827      1.80608     10.67504     11.18614      5.45548      9.69286      8.62721      4.13047     12.09670      7.92334      3.54155     10.21061      7.51902      1.06124     15.34962      5.50738      6.25281      8.47275      5.25314      6.91962      8.61851      0.44482     10.07126     14.46056      4.97587      8.53777      9.47124      2.74518      8.08317     12.79609      2.97470      8.09688     12.91583      0.24370      9.35759     10.54477      5.39135     11.04421     12.16059      5.91501      5.77466     12.90275      6.59828     10.09407     11.61653      9.06743     10.79574     14.16658      8.25617      0.70964      8.02764     11.03835      7.63691      9.29181      6.54785      8.84321      9.78289      8.96718      6.78515     11.73816      7.44146      7.66203     13.72557      9.38968      7.66122     15.30564     11.35688      0.99468     15.92189      4.93149      1.04268     14.23855      7.89127      5.11098     14.52134      0.91128      3.19490     15.92587      6.96161     10.03392      8.05074      1.90559      4.88191      8.55942      0.56243      4.22481     12.39289      0.14487      1.64345     11.00956     11.17999      0.67288     15.02987      2.50402      5.70379     14.04382      3.32588      6.45626     12.90227     10.49067      1.72241     10.01301      0.38602      2.87586      8.50299      0.46467      2.30460     11.93909      1.61921      3.47417     11.13918      2.33175      2.43039     12.53178     11.24427      5.47930     15.20295      4.68127      5.78298      8.89560      6.12683      4.55434     10.20264      4.75252      3.53154      9.91258     11.69442      5.76264     10.86768      4.31340      0.91738     11.82270      4.36880      2.19369      8.31832      7.61988      4.31281     12.32937      7.28946      4.27212     12.52394      6.72777      2.34296     12.81862      8.58396      3.45789     10.69475      8.46236      3.92282      9.49518      9.58321      4.03742     12.48812      5.97289      0.93710     10.89423      5.31895      4.87838      9.26220      7.81107      1.05510      8.90009      5.76206      7.68277     13.21108     11.81532     10.23492      9.14597      4.69397      6.41086     14.87261      5.41361      7.14528      8.73599      1.35440      9.76867      8.74840      3.20871      8.57732     15.30215      4.81547      9.04414      8.99211      2.14239      7.51357     11.83724      2.90235      8.25704     13.99257      4.08991      8.56790      9.16147      0.37235     10.87775     13.14575      2.14951      8.47225     13.57603     10.31613      6.23470     13.60379      6.28117      9.51401     12.49349      9.15717     11.20604     11.37409      5.72273     10.58355     10.34564      6.15579      0.12808     10.80459     10.47088      6.10448      7.36380     10.55440      8.19644      8.74498      7.32073      9.12462     12.14823      6.40648      6.64277     10.87309      7.90284      7.58273     12.86253      5.26019      5.68158     15.15951      8.07234      0.77149     13.27559      7.31612     10.59171     11.93887      7.29876      8.62230     13.03721      8.69615      7.64149      8.89016      9.33150      6.97291      9.76913      8.72727      5.75127     14.58303      8.94086      7.66552      9.55696     10.65818      0.93371      8.27336      4.04410      1.39932      7.90672      5.20141      2.51301     13.78461     10.23306      3.93075     14.84543      9.49749      3.15176     10.70793      8.13454      0.40446     13.22322     11.30890      8.77204     11.28988      9.97077     10.88617     13.83061      7.55475      1.27878      8.63948     11.48163      8.21330      9.53516      5.97943      9.59733     14.91859      0.14117      1.70150     14.76593     10.51770      0.99674     15.88146      5.15169      1.98284     15.79728      3.93051      0.91333     15.14264      8.42878      5.22113     14.39699      7.13022      5.70212     15.30116      1.38270      3.54648     14.24988      0.25116      3.82790     15.83222      7.90002     10.26049     16.34862      6.92753      9.14363 
    16.89540      9.87046     10.40376      3.41105      9.84685     10.14236      7.22933      9.75054     10.59949      1.69460      0.92719     10.20876      4.98951      1.05641     10.04262      0.05749      3.91980     10.13448      3.41105      3.93873     10.14236      6.86430      4.07273     10.19936      1.88247      6.86442     10.08797      5.22560      6.84307     10.38597      1.79796     10.67234      1.42456      5.13437     10.89926      1.28359     17.01124      1.91936      1.28373      3.41104      1.96937      1.40300      7.17272      1.82796      1.14142      1.71522      4.80595      1.43074      4.96953      4.72217      1.45932      0.08799      7.73570      1.37588      3.41104      7.87747      1.40300      7.01228      7.69864      1.48503     16.81985     10.01021      4.65982      3.41105      9.84685      4.36968      6.90378      9.93286      4.70000      1.68732      0.89950      4.41082      5.11229      0.92069      4.45817     17.02999      3.90499      4.42538      3.41105      3.93873      4.36968      7.00576      4.00138      4.56967      1.62071      6.98265      4.45495      5.03745      6.81148      4.35234      1.78044     10.70651      7.23933      5.09242     10.90093      7.37914     16.79165      1.82486      6.91126      3.41104      1.96937      7.17568      6.60760      2.02804      7.26377      1.70756      4.86612      7.17125      5.04320      4.98689      7.23095     16.89256      7.69802      7.14829      3.41104      7.87747      7.17568      6.73189      7.69712      7.30090      0.26143     11.72858      0.23693      3.41105      0.00000      0.00000      6.61031      0.03551     11.35796      1.78723      2.96024      0.03875      5.23860      2.83012     11.50945      0.22116      5.82654     11.38880      3.41105      5.90810      0.00000      6.67495      5.69445      0.26388      1.58966      8.77804     11.53515      5.29873      8.76269      0.12448      0.24338     11.72869      5.99207      3.41105      0.00000      5.77268      6.64038     11.79220      6.05203      1.67993      2.82792      5.79203      5.23619      2.99499      5.74178      0.18676      5.67321      5.73524      3.41105      5.90810      5.77268      6.81720      5.86246      5.87555      1.48588      8.84655      5.94298      5.10954      8.86762      5.85010      8.45992      0.86364      5.18950      9.10009     11.55946      3.02210      9.93262     10.92114      0.19602      8.23047      4.88268      1.67441     11.32482      1.14107      2.79493     14.07337      3.04360      5.63496     12.54516     11.10942      1.23172     13.34032     11.04426      5.50541     10.08002      4.99468      4.05517     10.89095      3.55944      1.61930     13.91527      9.60235      3.12375      8.30345      6.68423      4.69331     13.02040      5.94831      1.55743     10.76489     11.24207      5.72336      9.79963      8.97550      4.04851     12.02958      7.70308      3.32165     10.13276      7.59827      1.06422     15.23584      5.33191      6.38273      8.40950      5.23465      7.15994      8.23003      0.66814     10.16267     14.36712      4.69022      8.76630      9.55853      2.55690      7.94047     12.86696      2.55361      8.03367     12.95386      0.30892      9.19378     10.61498      5.39617     11.41539     12.02147      5.33012      5.71876     12.72956      6.11460     10.12127     11.74215      8.72402     10.80617     14.09551      8.36404      0.62282      7.95724     11.07354      7.55566      9.32779      6.55228      9.41884      9.99872      8.70108      6.74987     11.84397      7.13211      7.65052     13.86445      9.29253      7.67545     15.50581     11.29961      1.22937     15.89854      4.85102      1.27438     14.27477      7.63717      5.09292     14.32483      0.77663      3.41360     15.81595      6.77859     10.23933      8.23748      1.79454      5.00251      8.63172      0.35490      4.35143     12.16332     11.79770      1.77704     10.83787     10.92827      0.55195     14.77633      2.36703      5.77922     13.70315      3.13428      6.55869     13.10516     10.55006      1.80065      9.94530      0.24827      2.80127      8.47228      0.05587      2.40038     11.97658      1.00600      3.53331     11.23762      2.02598      2.51409     12.36450     11.16998      5.60188     14.94869      4.42047      5.97728      9.04697      6.11712      4.26393     10.19755      4.54685      3.16025     10.38873      0.27616      6.04069     10.63937      4.07997      0.76297     11.70252      3.99494      1.82726      8.37275      7.61265      4.42020     12.69295      7.39114      3.95022     12.38074      6.41925      2.15310     12.54451      8.41804      2.94941     10.60880      8.57617      3.61847      9.59662      9.87529      3.73955     12.51343      5.79358      0.75874     10.90574      5.14807      4.53216      9.20196      7.89254      1.18239      8.68523      5.84677      7.90137     13.16227      0.20893     10.16438      9.16347      4.85576      6.68121     14.98230      5.25578      7.32563      8.23979      1.64635     10.10193      9.49866      3.33850      8.50426     15.22973      4.55577      9.25678      8.62052      2.34891      7.72921     11.87870      2.66130      8.07839     13.85340      3.83937      8.81243      9.08107      0.30234     10.43886     13.06062      1.60703      8.25292     13.66721     10.43555      6.22499     13.45328      5.59089      9.70509     12.45791      8.99289     11.41126     11.41209      5.58428     10.84463     10.38181      6.23306      0.36606     10.53185     10.62863      6.46138      7.90733     10.11724      7.77407      8.49341      6.96397      9.72664     12.06120      6.06529      6.42004     11.05195      7.61504      7.48195     12.89990      4.99793      5.45176     15.08281      8.22953      0.71644     13.00625      7.06347     10.28627     11.81979      6.83516      8.56076     13.20900      8.55965      7.53388      9.16271      8.23619      6.79367     10.03531      8.88831      5.78889     14.74966      8.87664      7.63689      9.54937     10.12119      0.57909      8.13541      3.88924      1.83960      8.01386      5.27401      2.55892     13.68578     10.05537      3.95586     14.72951      9.11798      3.24740     10.57197      8.15428      0.33444     13.13940     11.28769      8.77728     11.38193      9.51668     10.32395     13.71276      7.51241      0.87588      8.22400     11.46415      8.39610      9.58220      5.94740     10.16431     15.20559      0.07878      1.95420     14.94504     10.52498      1.14884     15.87749      5.25794      2.17435     15.96049      3.83913      1.43995     14.92397      8.28400      5.21640     14.41480      6.92741      5.77616     14.55283      1.71271      3.55589     14.26448      0.44113      4.35478     15.77401      7.79106     10.28894     16.16439      6.75225      9.31790 