-1398.476700
-1398.490900
-1398.484400
-1398.489400
-1398.480300
-1398.490400
-1398.490100
-1398.487500
-1398.487600
-1398.491400
-1398.487200
-1398.487200
-1398.493300
-1398.484800
-1398.497600
-1398.486900
-1398.492700
-1398.496200
-1398.490700
-1398.491600
-1398.492800
-1398.484700
-1398.489800
-1398.488500
-1398.486100
-1398.490100
-1398.491500
-1398.496400
-1398.494600
-1398.497100
-1398.484600
-1398.492100
-1398.498200
-1398.491300
-1398.490400
-1398.491400
-1398.487800
-1398.494200
-1398.495000
-1398.494800
-1398.492900
-1398.489500
-1398.495900
-1398.492600
-1398.492200
-1398.495000
-1398.496300
-1398.497400
-1398.503900
-1398.493300
-1398.496700
-1398.505300
-1398.498800
-1398.507800
-1398.497600
-1398.504300
-1398.506700
-1398.498400
-1398.515400
-1398.501100
-1398.507800
-1398.500800
-1398.510000
-1398.502600
-1398.505300
-1398.508800
-1398.502500
-1398.504800
-1398.507400
-1398.508800
-1398.506100
-1398.515800
-1398.523000
-1398.517000
-1398.514500
-1398.517700
-1398.517300
-1398.513700
-1398.515800
-1398.521200
-1398.516800
-1398.522700
-1398.518200
-1398.526000
-1398.521800
-1398.520600
-1398.520900
-1398.524500
-1398.529400
-1398.523900
-1398.523300
-1398.527300
-1398.530800
-1398.521600
-1398.534200
-1398.527300
-1398.532400
-1398.523900
-1398.538500
-1398.529800
-1398.527800
-1398.531400
-1398.528000
-1398.532700
-1398.534200
-1398.531400
-1398.535600
-1398.537200
-1398.542700
-1398.531500
-1398.530700
-1398.525000
-1398.543000
-1398.534500
-1398.540700
-1398.542000
-1398.540200
-1398.551800
-1398.548200
-1398.539900
-1398.547000
-1398.547200
-1398.547100
-1398.558100
-1398.545100
-1398.554900
-1398.551300
-1398.549800
-1398.552500
-1398.556500
-1398.564600
-1398.552400
-1398.555500
-1398.555600
-1398.556000
-1398.558200
-1398.559600
-1398.560700
-1398.558400
-1398.565100
-1398.565400
-1398.558100
-1398.565100
-1398.573300
-1398.567000
-1398.574500
-1398.569500
-1398.566400
-1398.573000
-1398.564200
-1398.573400
-1398.575100
-1398.571500
-1398.567800
-1398.571900
-1398.565500
-1398.568300
-1398.573900
-1398.568700
-1398.568200
-1398.566300
-1398.574000
-1398.568700
-1398.586400
-1398.582100
-1398.577000
-1398.579600
-1398.585800
-1398.591000
-1398.576300
-1398.589000
-1398.580100
-1398.571700
-1398.576700
-1398.579300
-1398.590200
-1398.586800
-1398.588900
-1398.585300
-1398.584300
-1398.584600
-1398.583500
-1398.583000
-1398.573000
-1398.586000
-1398.586400
-1398.585900
-1398.579300
-1398.587800
-1398.579500
-1398.584700
-1398.583700
-1398.589200
-1398.587800
-1398.581700
-1398.584200
-1398.587200
-1398.583700
-1398.590400
-1398.595200
-1398.594100
-1398.587900
-1398.587900
-1398.599900
-1398.594300
-1398.591500
-1398.596600
-1398.594200
-1398.598700
-1398.591700
-1398.587800
-1398.585200
-1398.602400
-1398.590300
-1398.598100
-1398.592400
-1398.591600
-1398.591800
-1398.590000
-1398.589800
-1398.592400
-1398.591600
-1398.591800
-1398.590000
-1398.589800
-1398.591900
-1398.595900
-1398.600000
-1398.601100
-1398.595400
-1398.599500
-1398.590000
-1398.590600
-1398.594600
-1398.597000
-1398.599600
-1398.595200
-1398.591100
-1398.591900
-1398.605900
-1398.599200
-1398.603500
-1398.599500
-1398.596600
-1398.606800
-1398.605400
-1398.604700
-1398.603500
-1398.601400
-1398.610100
-1398.603700
-1398.606800
-1398.610800
-1398.606000
-1398.616300
-1398.614900
-1398.619700
-1398.606700
-1398.614400
-1398.603700
-1398.605500
-1398.603400
-1398.599800
-1398.614800
-1398.607700
-1398.606000
-1398.618000
-1398.611800
-1398.607200
-1398.620800
-1398.612000
-1398.614600
-1398.611900
-1398.607700
-1398.607300
-1398.621900
-1398.622600
-1398.620300
-1398.613800
-1398.620000
-1398.621600
-1398.622800
-1398.626500
-1398.627600
-1398.615700
-1398.622800
-1398.629900
-1398.625100
-1398.624700
-1398.621500
-1398.626000
-1398.625000
-1398.629500
-1398.630800
-1398.627000
-1398.634600
-1398.629600
-1398.630500
-1398.632300
-1398.636600
-1398.629600
-1398.627200
-1398.632900
-1398.627200
-1398.626700
-1398.630600
-1398.637700
-1398.629600
-1398.633900
-1398.634500
-1398.639400
-1398.627300
-1398.635700
-1398.626400
-1398.627400
-1398.630000
-1398.630000
-1398.625700
-1398.631900
-1398.621200
-1398.627600
-1398.630400
-1398.636600
-1398.627600
-1398.629500
-1398.632300
-1398.637500
-1398.636500
-1398.633700
-1398.626800
-1398.626500
-1398.632200
-1398.633300
-1398.633900
-1398.632600
-1398.637000
-1398.629000
-1398.633600
-1398.628300
-1398.636000
-1398.634000
-1398.636500
-1398.639800
-1398.636100
-1398.634200
-1398.631500
-1398.631500
-1398.629100
-1398.630300
-1398.640200
-1398.639600
-1398.629900
-1398.638000
-1398.631800
-1398.645200
-1398.633500
-1398.642300
-1398.644700
-1398.636500
-1398.645000
-1398.636400
-1398.632700
-1398.638500
-1398.631000
-1398.645700
-1398.636700
-1398.642800
-1398.637500
-1398.638100
-1398.647000
-1398.637800
-1398.646000
-1398.636500
-1398.639800
-1398.645300
-1398.636900
-1398.635800
-1398.638100
-1398.646400
-1398.640900
-1398.643800
-1398.645000
-1398.641300
-1398.646300
-1398.642200
-1398.634500
-1398.647500
-1398.640400
-1398.645200
-1398.640700
-1398.645800
-1398.650200
-1398.643000
-1398.641000
-1398.645200
-1398.652100
-1398.655300
-1398.647000
-1398.642600
-1398.662000
