   -0.050021    -0.011254    -0.045667     0.074964     0.004699     0.265097     0.038023    -0.010298    -0.026434     0.000398    -0.006449    -0.034210    -0.009840    -0.006137    -0.080947     0.023736    -0.007296     0.026626     0.179959    -0.126408     0.170127    -0.014704     0.049102     0.043051     0.012971     0.024448     0.044858     0.041940    -0.003124     0.032129    -0.018535     0.038018    -0.023353     0.036640     0.013236     0.028833    -0.009340    -0.042643     0.010009     0.136029     0.292683    -0.269736    -0.008807    -0.028455    -0.022643     0.065388     0.017139     0.061892    -0.006395    -0.027992     0.065521     0.029487    -0.033142    -0.020203     0.076425     0.219824    -0.125951     0.020209     0.014957     0.010411     0.039913     0.093590     0.029354     0.049645    -0.285200     0.294803    -0.007907    -0.009653     0.016848     0.009743    -0.003915    -0.043048     0.029691     0.003213     0.027185     0.012529     0.013886     0.033292    -0.274222    -0.133786     0.268608    -0.008535    -0.000425    -0.013823    -0.028355    -0.050093    -0.011954     0.056494     0.025578    -0.010119    -0.064766     0.057546    -0.031076    -0.007432    -0.011120    -0.008186    -0.053231     0.029798     0.006298    -0.702165     0.141625    -0.380179    -0.023995    -0.033295    -0.096872    -0.006887     0.010754     0.012000     0.001342    -0.005500     0.018855    -0.028353    -0.023417     0.002880    -0.251080     0.086573    -0.286190    -0.021341    -0.021697    -0.028389     0.007230    -0.014212     0.100350    -0.108325    -0.259339    -0.071507    -0.022522    -0.019983     0.109853    -0.018457     0.043795    -0.040532    -0.018898     0.080545     0.055759     0.004483     0.070676    -0.049792    -0.423122     0.301370     0.006208    -0.109524    -0.048563    -0.162023    -0.017639    -0.070826    -0.015677    -0.067045    -0.025172    -0.016583     0.051748    -0.147643     0.019688     0.757691     0.061920     0.134798     0.063469     0.102676    -0.037669     0.041260     0.008675    -0.007424     0.027863    -0.009114     0.024986     0.001930     0.021810    -0.078004     0.471969     0.029500    -0.104949     0.034647    -0.003756    -0.059891    -0.003125    -0.011201     0.011564    -0.023545    -0.027864     0.033889    -0.100174    -0.089135     0.156997     0.026210     0.646936    -0.346060    -0.911044    -0.184524     0.408503     0.118739    -1.091906    -1.314169     0.658531     0.081985     0.314897     0.425596    -0.520637     0.109314     0.140462     0.199713     0.792344     0.435623    -0.414709     0.803384     0.610025     0.644706     0.860176    -1.274845    -0.610460    -0.046141     0.082857     0.196780     0.405219     0.039612    -0.103775     0.105884     0.435442     0.044912     0.691162    -0.182918     0.130514     0.065686    -0.744267     0.368151    -0.129883     0.291310     0.514162    -0.388740    -0.285733    -0.342159     0.385154    -0.150215    -0.237311    -0.253136    -0.798221     0.458568     0.719911     0.162578    -0.185293     0.039081     0.001295    -0.359888     0.127973     0.485487     0.045800     0.545210     0.516369    -0.440122     0.161257    -0.273034     0.562576     1.634810    -0.569001    -0.149118     0.365738     0.102223     0.161407     0.269215     1.113019     0.246047     0.530897    -0.278541    -0.037215    -0.144807    -0.439162     0.232311    -0.132692    -0.034054     0.234440     0.630890    -0.672709     0.595542    -0.183204     0.530807     2.072190     0.790969     0.779100    -0.316859    -0.018932     0.154763     0.281109    -0.039342    -0.306492    -0.476731    -0.238203     0.097818     1.074467     0.024444    -0.817249    -1.045863     0.948479     0.227711     0.351711    -0.216739    -0.087303     0.388995     0.186435     0.080926    -0.041435    -0.111080     0.004084     0.141002    -0.031252     0.010452    -0.549344    -0.440665     0.493023     0.173644     0.216378    -0.665881     0.482585     0.031010     0.313615     0.052117    -0.119574    -0.146832     0.316341    -0.396624    -0.614166    -0.230717    -0.037556     0.579498    -0.455680     0.376345    -0.567013    -0.055831    -0.292317    -0.081481    -0.068381    -0.041532    -0.281825     0.038043    -0.126289     0.137458     0.232355     0.195385    -0.076432     0.039493     0.010634     0.167876    -0.204413    -0.383056     0.129723    -0.113597    -0.068017     0.361364    -0.180713     0.260808     0.923782     0.784376    -0.257186     0.046141     0.083912    -0.054044     0.092578    -0.219676     0.455436    -0.048418    -0.186982    -0.540734    -0.328821    -0.399822    -0.070772     0.537341    -0.010737     0.182330     0.154094    -0.338623    -0.079190    -0.334142     0.212495    -0.175835    -0.726626    -0.389425    -0.428922     0.196936    -0.055314    -0.122683     0.064678    -0.086742    -0.104752    -0.228398     0.150411    -1.022838     0.793230    -0.362614    -0.558657    -0.016229    -0.038369     0.126565    -0.012732     0.153188    -0.082776    -0.046893    -0.196358    -0.204765    -0.133211     0.167988    -0.155030    -0.442727     0.152346    -0.317548    -0.420984     0.023658     0.083408     0.103469     0.176216     0.043801    -0.137361     0.025286     0.020746    -0.070937     0.351204    -0.269669    -0.135998     0.330378    -0.732809    -0.358667     0.227995    -0.025987     0.591639    -0.027893     0.041819     0.341945     0.222977    -0.010486     0.229272    -0.093873    -0.296085     0.011943    -0.027286     0.020717     0.116382     0.100362    -0.195485     0.452143    -0.397927    -0.178742     0.082109    -0.271942    -0.330090    -0.768619     0.277301    -0.116391    -0.240381     0.053133     0.062723     0.449791    -0.183817     0.062545    -0.758132    -0.487584    -0.541168     0.000557    -0.048144     0.157343    -0.265631    -0.302578    -0.022529     0.584123    -0.700060    -0.347670    -1.099835    -1.369509    -0.443809     0.150987    -0.018422     0.012217     0.400692     0.094765    -0.653261     0.040040     0.056322    -0.192256    -0.119051     0.979208     1.550874     0.097409    -0.153451    -0.400241    -0.155835     0.054578     0.095038     0.045450     0.325565    -0.198654     0.456507    -0.646616    -0.566473    -0.302178     0.022597     0.035393     0.011215    -0.091795     0.066001    -0.050800    -0.322545    -0.435238     0.163165    -0.194153     0.293927     0.000687     0.035548     0.018841     0.345978     0.429273     0.168373    -0.041464     0.074696     0.027371    -0.142690    -1.164376    -0.031249     0.953307     0.872623    -0.584611    -0.142896     0.147124    -0.363049    -0.081015    -0.002827    -0.189747    -0.143464    -0.375925     0.427271     0.019598    -0.348585     0.023107     0.059130    -0.066558    -0.165734 
   -0.530409    -0.137463    -0.570336     0.142619    -0.120435     0.275707     0.356028     0.245500     0.422681     0.141178     0.110848     0.069826     0.193558     0.062847     0.509536    -0.398531     0.455506     0.049348     0.451681    -0.349282     0.022629    -0.464635     0.113880    -0.545633    -0.485685     0.068217    -0.094578     0.489323    -0.294983    -0.149169     0.202495     0.071637     0.294591     0.127676     0.113882     0.689841     0.394891    -0.182469    -0.599629     0.383426    -0.010611    -0.895649    -0.192882     0.578290    -0.036680     0.651742     0.650467    -0.252005     0.330411    -0.023443     0.535228    -0.049645    -0.671051    -0.099209     0.636557    -0.221566     0.696337    -0.407596    -0.274416    -1.256226    -0.364689    -0.076710    -0.991401    -0.070031    -0.368886    -0.834690    -0.549283    -0.009512     0.255990     0.029380    -0.293504     0.234142     0.297782     0.274417     0.218499    -0.627460    -0.144539     0.256370     0.062611    -0.367898     0.692906     0.110082     0.019821    -0.243272    -0.186220     0.237668    -0.202603     0.434661     0.098356     0.297212    -0.704240     0.229301     0.942062    -0.402727    -0.043697    -0.293224     0.115211    -0.028899    -0.063632    -0.670827    -0.403026    -0.581150     0.710877     0.207787    -0.980205    -0.053329     0.150450    -0.232546    -0.197349     0.026519    -0.159700    -0.353588    -0.041103    -0.060622    -0.177597     0.035281    -0.677531    -0.029742    -0.202067    -0.695021     0.538232    -0.021733    -0.350860    -0.114653     0.505169     0.048881    -0.554283    -0.460871    -0.891042     0.330182     0.526853     0.223745    -0.347050     0.005383     0.329779     0.000240    -0.615921     0.609396    -0.246661    -0.409358     0.460310     0.087873    -0.708839     0.909723    -0.330550     0.455570    -0.516670    -0.142107     0.343738     0.250159     0.468816     1.353146     0.336531     0.615862     1.303651     0.263033     0.169700     0.144331     0.160995     0.374204    -0.551850    -0.154445    -0.808352     0.347685     0.156169    -0.370031     0.257276    -0.557668     0.857028    -0.113613     0.446147     1.174457    -0.855947    -0.958097     0.162020    -0.880575     0.705156     0.009385    -0.488507     0.980765     0.107935     0.793096     0.827580     1.009045     1.112957     0.483812     0.527178     0.522124     0.840215     0.567609    -1.190560    -3.011974    -0.987970     0.005209    -1.037722    -1.022034     0.139091     0.184455    -0.091506     0.877766     0.228709     1.685360    -0.870890     1.030900    -0.113057     0.272515     0.799571     1.431078    -0.151180     1.136704    -0.252591    -0.918447    -1.124645     0.765261     0.401413     0.353070     0.446669     0.267273     0.013347    -0.033536    -0.320262     0.154245     0.098902    -0.582257    -0.249372    -0.004506     0.823256    -0.099747     1.148592     0.914170    -0.388811     0.497671    -0.110106     0.559599    -1.674024     0.806639     0.637110    -0.571017     0.475114    -0.195235     0.106106    -0.231521     0.503523    -0.772468    -0.694551    -0.340379     0.851253    -0.466077     0.335884    -0.626472     1.253713    -1.739472     0.352546     0.442968    -0.095004    -0.365815    -0.865800    -0.544862     0.720248    -0.352637    -0.003995    -0.074979    -0.089433    -0.023703    -0.302579     0.365304     0.941075     0.042538     0.274024     2.100713     1.681598    -0.677716     0.444340     0.035207    -0.107878    -0.311422     0.698588    -0.037918    -0.792184    -0.117586    -0.358404    -0.077288     0.796450     0.620112     0.891828     0.253806    -0.044968    -0.312881    -0.918365     1.449048    -0.424946    -0.465878    -0.053652     0.792947    -0.882867    -0.201881    -0.199715     0.166133    -0.278543    -0.261924     0.109219    -0.273697    -0.693535     0.323132    -1.709213    -0.405428    -0.529850    -0.254626    -0.276641    -0.147145     0.188752     0.185129     0.640991    -0.394294    -0.280382    -0.569240     0.865109    -0.675751    -1.210773    -0.508503    -0.521819     0.492101    -0.468807     0.342927     0.969710     0.100212     1.237094     0.016793     0.203967     0.216504    -1.125587     0.056684     0.175522    -0.198892    -0.494381    -0.522099    -0.259744     0.074814    -0.098288     0.120659    -0.129612    -0.267740    -0.302927     0.317073     0.066109    -0.890604     0.508403    -0.974216    -0.807826    -0.649245    -0.306047    -0.334825    -0.574494     0.132194     0.030625    -0.417355     0.348613    -0.043360    -0.403647     0.090503    -0.020301     0.278828    -0.378851    -0.161924     0.106813    -0.363005    -0.045415     0.502642     0.121842    -0.154698     0.104725    -0.307861     0.017073    -0.066058    -0.235456    -0.115383    -0.128168    -0.145674    -0.040151    -0.138445     0.020898     0.383521    -0.466431     2.081034     0.911596    -0.524628    -1.026598    -0.095563     0.414104    -0.144802    -0.012789    -0.335771     0.107055    -0.075333     0.463315     0.386843    -0.521708    -0.171422    -0.148509     0.749773     0.232654     0.149341    -0.327183     0.013152     0.041734     0.329967     0.084592    -0.351948     0.318587    -0.233232     0.279969    -0.305711     0.350311    -0.332028    -0.362348     0.827269    -1.111467    -0.913580     0.857765     0.700498    -1.047339     0.275444    -0.023643    -0.277660     0.236138     0.141534    -0.089918    -0.700780    -0.156241     0.221429    -0.121156    -0.158801     0.635272     0.335367    -0.475993    -1.144651     0.868771     0.392832    -0.274313     0.815515     1.194183    -0.635619     0.174493     0.069437     0.590794    -0.309786    -0.064521     0.001431    -0.114826     0.048773    -0.002243    -0.965117    -0.889872     0.044350    -0.243796     0.646257     0.421189     0.215123     0.097668     0.004992     0.194277     0.053788     0.337208    -0.040840     0.008488    -0.167724     0.195096    -0.206387    -0.011783    -0.228114    -0.895388     0.157614     0.355747    -0.578170    -0.979918     1.163882     3.810103     0.131277     0.417650     1.227573     0.290293     0.077564     0.268121    -0.819394    -0.483339     0.428472     0.154578    -0.469744    -0.299692     1.106447    -0.549572     0.269716     0.204068     0.117195    -0.747608    -0.121941    -0.408979    -1.317537    -0.151902     0.010297    -0.099774    -0.115263     0.209554    -0.180433    -0.961577    -0.792224    -0.467517    -0.057052     0.095841     0.108635    -0.153982     0.305430    -0.112626    -0.354337    -1.039127     0.156040     0.793700    -0.749417     0.468281     0.148201    -0.270960     0.305235    -0.155260     0.218053    -0.590189     0.164781     0.138843     0.208567     0.093378     0.058047    -0.070746 
    0.296996    -0.077959     0.407155     0.558854     0.052683     0.265823    -0.042295    -0.289870     0.113238     0.069322     0.106075    -0.096277    -0.605370     0.707382    -0.358154    -0.132688    -0.554216    -0.160385     0.682426    -0.290573    -0.101640    -0.353098    -0.075350     0.078523     0.070008    -0.278155     0.294823    -0.601629    -0.019387     0.856437    -0.614432    -0.295021    -1.124277    -0.298907     0.122793    -1.218508    -0.386174     0.058609     0.140453     0.374823     0.234498    -0.780384     0.564740    -0.384168    -0.053181    -1.513682    -1.053525     0.426666    -1.086069    -0.213681    -0.221039    -0.018557     0.815222     0.256616     0.408811     0.242762    -0.065417     0.726244     0.304039     0.708741     0.064162     0.124324     0.494589    -0.305427    -0.571376     0.159439     0.516927     0.238331    -0.411404    -0.032484     0.327659    -0.212128    -0.083080    -0.319670     0.141455     0.145127     0.107567    -0.076263    -0.303243    -0.168715     0.023718    -0.220860     0.387737     0.115997    -0.171143     0.137518     0.585951    -0.910087    -0.082830    -0.689746    -0.067243    -0.039135    -1.863809     1.174547     0.429503     0.447459     0.267028    -0.294778    -0.800015    -0.604705    -0.186489    -0.324741    -0.115914    -0.151897    -0.201329    -0.053979     0.264292    -0.243098     0.156410     0.442328     0.097750    -0.188674    -0.173818    -0.374707    -0.218466    -0.498798     0.041175     0.489875     0.030101     0.050405    -0.112084     0.020408     0.308240     0.301368     0.235167     0.690263     0.401611     0.376877     0.728111     0.295037     0.086549     0.147090     0.106800    -1.176808     0.091704    -0.023206     0.932149     0.052692     1.516154     0.937338    -1.053919     0.003821     0.465777    -0.670690    -0.572800    -0.801145     0.523551    -0.045780    -0.588849    -0.394396    -0.386123    -0.243293     0.909006     0.501042     0.102029     0.339995    -0.504009     0.946585     0.908124    -0.345420     0.240221     0.223262     0.875058    -0.557713     0.150181    -0.462308    -0.302676    -0.430271     1.168981    -0.366283     0.150869     1.251185    -0.964888     0.298656    -0.787516     1.281098     0.026888    -0.412112     0.348302     0.354694    -0.197520     0.394224     0.282891    -0.631748     0.975000    -1.731453    -1.069648     0.417493    -0.949451    -0.589550     3.515614     1.689925     1.227286    -2.465654     1.562680    -0.275671     0.149350    -0.038441     0.548061    -0.343471     1.545305    -0.030624    -1.377913     0.662527     0.383573     0.099077     1.129608     1.055281     1.517140     0.062940     0.303194    -0.657650    -0.457635     0.214796     0.207496    -0.525031    -0.166747    -0.558605    -1.020333     0.596836     0.109122    -0.114877     0.921461     0.716593     0.131365    -0.256046    -0.859484     0.344892    -0.011329     0.966559    -1.245384     0.110194     1.453124     0.585279     0.517954    -1.015790    -1.326637    -0.920347     0.386403     0.103645     0.380651    -0.688192     0.594201     0.137015     0.539114     1.135586     0.014238    -0.246204     0.208662     0.313645    -0.801914    -1.345481     0.950136     0.609328    -0.108953     0.063560    -0.633846    -1.137835    -1.040930    -0.359079    -0.453187     0.600478    -0.217578     0.211592     0.880674     0.553072    -0.707405    -1.392810    -1.130354    -1.489014    -0.265475     0.905917     0.292751    -0.107046    -0.442211    -1.658572     0.858468     0.278752     1.201721     0.070255     0.493497     0.199215    -0.402206    -0.452202     0.205980    -0.664735    -1.495285    -0.267597     2.701575     1.116345     0.757883     0.303878     0.809981    -0.818480     0.098557    -1.129275     0.034174    -0.102763    -0.002288     0.468422     0.507625    -0.570803    -0.659326     0.089958    -0.088325    -0.333769     0.739336    -0.016418     0.610289     0.337214    -0.034827    -0.084280    -0.700239    -0.345151     0.288664    -0.414659     0.803580    -0.817064    -0.653748     0.024613     0.110062     1.136831    -0.909972     1.244341    -0.223937    -0.405238    -0.260357    -0.660901     2.327251    -1.433337    -0.027930     0.245163     0.037252    -0.603419    -1.472071    -0.749818    -0.057549     0.199390    -0.063928     0.196037    -0.430781    -0.874233     0.028558     0.100747    -0.013613     0.076560    -0.486302     0.847681    -1.096789    -0.618495    -0.949327     0.025068    -0.596752     0.339967     0.072600     0.824742    -0.318859    -0.624866     0.270667     0.203348     0.231255    -0.151308     0.182955    -1.042649     0.025557    -0.276918     0.241464    -0.431688    -0.176193     0.483324     0.209117     0.980288    -0.387018     0.274707    -0.286644     0.770540    -0.247614     0.135356    -0.126391     0.127529     0.013151     0.167830    -0.065336     0.509115    -1.411421     1.018402     0.939914     0.488688    -0.153411     0.207980    -0.094731     0.486662    -0.166328     0.563820    -0.214274    -0.547457    -0.375380     0.088817    -0.237670    -0.484289    -0.220267    -0.493637     0.053993     0.229713    -0.150710    -0.349253     0.798625    -0.202854     0.890328    -0.575561     0.145998    -0.057692    -0.450857     0.047954     0.114590     1.278214    -1.053932     0.474312    -0.718403    -0.171264     0.163681    -0.357835    -0.046119    -0.683831    -0.437029     0.410903    -0.179243    -0.155318    -0.122692    -0.639601    -0.108914     0.088160     0.650908     0.334210     0.215690     0.438612    -0.894742    -0.167330    -0.213406     0.094240     0.130435    -0.242888     0.107188    -0.208825     0.096197     0.111008     0.284244    -0.599247     0.352740    -0.082231     0.506181     0.818732     0.785768    -0.315185    -0.075702    -0.466539    -0.213473    -0.225455    -0.140595     0.569543    -0.208062    -0.056915    -0.244737     0.341759     1.786930     0.102753     0.029356    -0.102921    -0.137843    -0.331106     0.479308    -0.053407    -2.343986     0.201452     0.730580    -1.113965    -1.785677    -0.305831     0.525897     1.211734    -0.295958     0.090024    -0.281118    -0.782004    -0.615768     0.845286    -0.370625     0.907748     0.749201    -0.758527     0.194839    -0.210267    -0.397958    -0.575175     0.310728     0.345645     0.525475     1.028311     0.002146     0.178317     0.506570     0.331131    -0.300174     0.008051     0.877462     0.917833    -0.169483    -0.078957    -0.056673     0.238610     0.396554     1.396033     0.429126    -2.227426    -1.180884    -0.447819    -0.025268     0.185968    -0.412551    -0.380829    -0.228311    -0.144111     0.063757    -0.429014     0.915466     0.243744     0.500665     0.029683    -0.042522     0.374462    -0.043868 
   -0.239270     0.279025    -0.257399     0.440072    -0.242726     0.570680    -0.345056     0.357034    -0.254172    -0.152979    -0.082749    -0.168764     0.500069    -0.648917    -0.316914    -0.100585     0.495326     0.027031     0.549806    -0.397064    -0.011481     0.270186     0.006481     0.468607    -0.361650     0.090327    -0.347970     0.209749    -0.161073    -1.293701     0.590965     0.515455     1.089199     0.120231    -0.354468     1.034997    -0.038835     0.262981     0.176558     0.742109    -0.088676     0.223253    -0.571373    -0.229488    -0.000229     0.689940     0.930660    -0.093322     0.800390     0.322633     0.212521    -0.365147    -0.655506    -0.083821     0.264360    -0.179175     0.088340    -0.479568    -0.333436    -0.389932    -0.528536    -0.144319    -0.034183    -0.076996    -0.130573     0.891578    -0.253360     0.074067     0.311693    -0.156431    -0.095570    -0.078932     0.245807     0.247383    -0.160275    -0.097482    -0.022902    -0.603987    -0.354644    -0.348302     0.268246    -0.054038    -0.701240    -0.309445    -0.107917    -0.330884    -0.497478     0.629998     0.575536     0.689840     0.201346     0.972755     1.397953    -1.660886    -0.879856    -0.142037    -0.702411     0.561978     0.792217    -0.649947     0.159573    -0.116671     0.333058    -0.204996     0.468594    -0.171854    -0.379880     0.364008    -0.009603    -0.488848    -0.294055     0.016404    -0.088131     0.045767    -0.617152     0.182635     0.328097     0.039662     0.590308    -0.280658    -0.980392     0.000441    -0.506737    -0.327340    -0.751064    -0.659583     0.086393    -0.365954    -0.176700    -0.761230    -0.491900    -0.501462    -0.232017     1.148896     0.324234    -0.502317    -0.726564     1.243883     0.022903    -0.265243     0.796748    -0.235119    -0.306236     1.118333     0.203569     0.116284    -0.304076     0.311578     0.498610     0.421633     0.589468    -0.227925    -1.202612     0.779758    -0.364619    -0.008551     0.977980     0.263866    -0.754992     0.366586     0.372735    -0.063099    -0.169845     0.203276     0.194825    -0.268354     0.985794     0.785390     0.751117    -0.086517    -0.289773    -0.508497     0.963550     0.128726     0.003187    -1.529260    -0.592684     0.669038    -0.132407    -0.484458    -0.769962     0.146858     0.923017     1.883503    -0.227167     0.764881     0.066405     0.089806    -0.230577    -0.769397    -0.695219     0.587497     0.858704    -2.987511     1.616487     0.353577     0.255251     0.824154     0.050467    -0.839238    -1.072841     1.028911    -0.374381     0.061746    -1.251904    -0.591805    -1.894296    -1.155593    -0.173752    -0.822709    -0.858925     0.530790    -0.605540     0.090590    -0.406832    -0.270454    -0.326859     0.234172     0.576878    -0.325693     0.387219     1.255086     0.310802    -0.545946     0.104748    -0.508362    -0.857292    -0.000546     0.356579     0.896760    -0.810069    -0.006226    -1.036120    -1.187150    -0.243159     0.274893    -0.080186    -0.241915     0.404483    -0.952368     0.568026    -0.308067     0.626947     0.518665    -0.028896     0.270153    -0.951245     0.706860    -0.082251     0.038965    -0.048773     1.680537    -0.037089    -0.587762    -0.729639     0.430142     0.288925     0.242993    -0.170390     1.615234     0.398118    -0.605008     0.660521    -0.706465     0.883937     0.531597    -0.505443     0.772055    -0.930683     0.058572    -0.900928     0.018691     0.070222     0.290211     0.372517     0.134909     1.989568    -0.781559    -0.235052    -0.363258    -0.290481    -0.096932     0.646551     0.550208    -0.277438    -0.294562    -0.655902     0.824946    -2.025380    -2.747150     0.174515     0.068050     0.438291     1.263984    -0.099413     1.615131    -1.030678     0.096481    -0.011306    -0.159706     0.456351     0.082246    -0.631876    -0.119266     0.812513     0.600312     0.464150     0.122300     0.126144    -0.044002     0.410806    -0.077280    -0.434499    -0.692613    -0.603336    -0.158658    -0.068504     0.224557    -0.512718    -0.312550     0.419642    -1.397449     0.402643    -1.276753    -0.691783     0.641580    -0.980693    -0.131235     2.437125    -0.778905    -0.102937    -0.135648     0.223650     0.141339     0.845572     0.294884    -0.112970     0.055249     0.418781     0.160249     0.605293     1.237889     0.043823    -0.373251    -0.480789     0.123532    -0.361244     1.150421     1.385302     0.624221     0.352232     0.279296     0.438565    -0.155501     0.105786    -0.162208     0.864837     0.362635     0.070354    -0.045388     0.616615     1.006089    -0.599567    -0.590794     0.345671     0.351346     0.107512    -0.126581    -0.217733    -0.036454    -0.251374    -0.476593     0.915945     0.069756     0.425643     0.113008    -0.247981    -0.044136     0.283670    -0.481261    -0.137512    -0.212988     0.111004    -1.377757     0.102420     0.002562     0.201695    -0.220071    -0.106589     0.544504     0.331433    -0.259552     0.016646    -0.160917     0.075476     0.024531    -0.612083    -0.317635    -0.200840    -0.021405     0.095274    -0.194659     1.132439    -0.325114    -0.204263     0.283066     0.099854    -0.489539     0.544274    -0.128882     0.534174    -0.276747     0.329845     0.428002    -0.515991     0.392303    -0.398814     0.319728     0.168636    -0.205339     0.190679     0.374217    -0.244987    -0.234008     0.136639     0.132861    -0.088959     0.145801     0.356111     0.004069     0.116124    -0.653103    -0.183294     0.130894    -0.410707     0.408909     0.129660    -0.371508     0.201778    -0.759231    -0.522957    -1.617194     1.296920    -0.662605    -0.485442     0.395185     0.412648    -0.751991     0.128174     0.095198    -0.314837    -1.388113    -0.226924     0.160534    -0.435681     0.723620     0.431438     0.378172     0.153343    -0.987997    -0.298058     0.430216     0.197595    -0.005938    -0.797136    -0.146216     0.080253    -0.006488    -0.354108     0.074233    -0.142955     0.072581     1.110283    -0.516548     0.110014    -0.189440    -0.635378     0.209721     0.161317     0.506368     0.524256    -0.181502     0.092136    -0.425642    -0.556834     0.763461     0.362249    -0.897040    -0.242861     0.622793    -0.967443     0.872239    -0.056574    -0.741561     0.530229    -0.249195     0.751952     0.361512     0.246572     0.095498    -0.291370    -0.272921    -0.372578     0.158675    -0.192472    -0.333287     0.065732     0.012464    -0.271415    -0.778509     0.203905     1.411427    -0.533739     1.911752     1.691010     0.541116     0.153665     0.847525    -0.844106     0.018571    -0.113221    -0.357702    -0.171550    -0.313742    -0.994926    -0.015178    -0.806895     0.665167    -0.020085    -0.431693    -0.295171 