-1405.490400
-1398.913800
-1399.415800
-1399.952800
-1399.264700
-1398.962400
-1399.689400
-1399.772800
-1398.245800
-1398.945800
-1399.701400
-1399.651600
-1400.044500
-1399.188100
-1398.648900
-1399.074100
-1398.733800
-1398.804100
-1398.464400
-1398.472400
-1399.194700
-1398.443500
-1400.543700
-1398.962600
-1399.514300
-1399.245000
-1399.246900
-1399.386600
-1399.794300
-1399.296100
-1399.731500
-1398.418800
-1399.229700
-1399.536000
-1399.846700
-1398.816600
-1399.294000
-1400.173600
-1399.594100
-1398.988600
-1400.300200
-1398.439300
-1397.707800
-1397.715400
-1398.364600
-1398.394700
-1398.608100
-1399.683600
-1398.659400
-1399.196900
-1398.986900
-1399.421800
-1399.097700
-1398.306500
-1400.025200
-1399.450200
-1399.950300
-1400.145300
-1399.184600
-1400.011700
-1398.828000
-1399.793700
-1398.886200
-1399.042000
-1399.115600
-1398.568700
-1398.672100
-1399.066200
-1398.581700
-1397.990200
-1397.607000
-1398.458100
-1398.553500
-1398.513100
-1398.837800
-1398.625100
-1398.479900
-1398.214300
-1398.980000
-1398.666600
-1398.923800
-1399.591900
-1400.046100
-1397.489100
-1398.512600
-1397.070800
-1398.618700
-1398.098900
-1397.455900
-1398.526800
-1398.992200
-1398.278800
-1398.017900
-1398.844300
-1398.132000
-1399.915500
-1399.110100
-1398.477100
-1399.426800
-1398.760900
-1398.995800
-1399.482100
-1398.995900
-1399.814300
-1399.225400
-1398.828400
-1398.876700
-1398.704400
-1399.251600
-1399.390700
-1399.362300
-1399.772000
-1398.923300
-1399.183200
-1398.893000
-1398.620700
-1400.409100
-1398.600200
-1400.232500
-1399.662000
-1399.845600
-1399.688500
-1399.399900
-1399.696300
-1398.271500
-1398.558700
-1399.450000
-1398.827900
-1398.649500
-1399.712300
-1398.981000
-1399.014800
-1399.380900
-1398.924800
-1399.022500
-1399.616200
-1398.521100
-1399.148400
-1399.362700
-1400.005800
-1399.688200
-1398.888100
-1398.933800
-1399.144900
-1399.269500
-1399.883100
-1398.927300
-1399.147700
-1398.717800
-1397.856500
-1398.752500
-1398.383200
-1397.823100
-1398.561000
-1398.243400
-1398.382300
-1399.290600
-1397.814800
-1397.742900
-1399.013000
-1398.419400
-1398.440700
-1398.418300
-1399.351500
-1398.374400
-1398.780900
-1398.308000
-1399.122100
-1398.178100
-1397.232900
-1397.695900
-1399.415600
-1398.667300
-1398.941200
-1398.811700
-1398.901000
-1397.962200
-1398.266100
-1397.971800
-1398.208800
-1399.025700
-1399.005400
-1397.666200
-1397.669800
-1397.708400
-1397.977600
-1398.782400
-1397.584700
-1398.416500
-1397.581100
-1399.058800
-1399.495000
-1398.598300
-1398.763900
-1397.956700
-1398.066200
-1398.142200
-1397.804200
-1397.410500
-1397.999600
-1398.317700
-1398.924900
-1399.042300
-1398.678000
-1398.534100
-1398.317200
-1399.002300
-1398.725500
-1398.365600
-1398.706500
-1397.387900
-1397.921700
-1397.525100
-1397.308600
-1398.190000
-1397.088500
-1397.222100
-1399.183800
-1397.896900
-1397.280500
-1398.026900
-1397.487500
-1399.104700
-1399.309200
-1398.608400
-1399.017200
-1398.536100
-1399.448400
-1399.151300
-1398.463800
-1398.938900
-1397.684600
-1399.130500
-1399.611100
-1399.894300
-1398.012800
-1399.109400
-1398.242200
-1400.103900
-1399.522000
-1400.133600
-1399.028300
-1398.806400
-1399.516600
-1399.763200
-1398.935300
-1398.869200
-1399.386100
-1399.172200
-1399.568000
-1400.214200
-1399.740600
-1399.293800
-1399.471500
-1399.223200
-1398.808100
-1399.679000
-1399.934800
-1400.214000
-1400.586200
-1400.368700
-1399.898600
-1399.545000
-1400.627100
-1400.455200
-1400.458600
-1399.326300
-1400.579300
-1400.303200
-1400.585900
-1400.125600
-1399.804100
-1399.411800
-1400.436900
-1398.914300
-1400.378400
-1399.938400
-1399.874200
-1400.773800
-1400.814300
-1400.633100
-1400.505200
-1400.529300
-1398.861800
-1399.495800
-1400.339200
-1400.055300
-1399.752400
-1399.000900
-1399.845000
-1399.682500
-1400.235200
-1399.523600
-1399.849700
-1399.684400
-1399.087100
-1400.012400
-1398.970800
-1399.329200
-1399.174700
-1399.536700
-1399.688900
-1400.709500
-1398.440300
-1400.177900
-1399.323100
-1399.491300
-1399.942600
-1399.486700
-1399.562100
-1399.615500
-1399.657200
-1399.869200
-1400.419700
-1400.712000
-1400.206600
-1400.265300
-1399.154700
-1399.936600
-1398.414700
-1399.169700
-1399.707400
-1399.719000
-1399.608300
-1399.604300
-1399.464700
-1399.678500
-1399.338800
-1399.944600
-1399.459300
-1399.565000
-1399.282600
-1399.757600
-1400.116200
-1400.734300
-1400.772600
-1400.655800
-1399.598600
-1399.910500
-1400.125300
-1399.836500
-1399.880500
-1400.428800
-1400.963000
-1400.571700
-1400.788700
-1400.719600
-1400.287600
-1400.710300
-1400.372700
-1398.882600
-1399.425000
-1399.886300
-1399.879600
-1399.550000
-1399.457900
-1400.013200
-1399.987700
-1400.069300
-1400.382000
-1399.512400
-1399.851500
-1399.916600
-1399.970700
-1399.822500
-1399.462100
-1399.319700
-1399.411400
-1399.478200
-1400.879600
-1399.091300
-1399.511800
-1399.283700
-1399.921200
-1399.674300
-1400.444400
-1400.226400
-1400.061700
-1398.976400
-1399.616000
-1399.290100
-1399.088100
-1399.644500
-1400.305500
-1399.577500
-1398.111600
-1397.806700
-1398.673600
-1399.485100
-1399.669200
-1398.737900
-1399.473600
-1399.571700
-1399.724000
-1399.369300
-1399.997900
-1399.421800
-1399.338300
-1399.692300
-1400.297900
-1399.821200
-1401.673100
-1399.869500
-1400.296500
-1400.133800
-1399.420000
-1399.705400
-1399.991200
-1398.471900
-1399.291400
-1399.082600
-1399.025600
-1398.677800
-1400.385900
-1399.570400
-1399.921100
-1399.533900
-1398.754800
-1398.706900
-1399.402500
-1399.531500
-1398.599900
-1399.484200
-1400.161800
-1399.415200
-1399.886000
-1399.430200
-1399.639000
-1400.291400
-1399.926400
-1398.647200
-1399.675100
-1400.064300
-1398.882800
-1399.435000
-1399.946200
-1399.633900
-1399.542600
-1399.516600
-1400.527400
-1400.365600
-1399.637000
-1399.744100
-1399.477200
-1399.407500
-1399.418300
-1399.366100
-1400.301100
-1399.917000
-1399.769800
-1399.589600
-1399.544200
-1399.521400
-1400.298500
-1400.528500
-1400.138900
-1399.422200
-1400.409400
-1399.611700
-1399.053400
-1399.467500
-1399.224700
-1399.376000
-1399.511400
-1399.100000
-1399.798100
-1399.883100
-1399.267500
-1398.847900
-1399.887800
-1400.351300
-1400.119200
-1399.036500
-1400.434200
-1399.164100
-1398.953300
-1399.454500
-1399.431300
-1399.618100
-1399.563900
-1399.519100
-1398.720000
-1399.249000
-1399.900000
-1400.288400
-1399.945300
-1400.150500
-1398.863300
-1399.067600
-1399.623200
-1400.024200
-1399.059800
-1398.879400
-1399.429900
-1400.561600
-1399.902500
-1400.314800
-1400.157300
-1400.844500
-1399.582100
-1399.416000
-1399.382500
-1400.419100
-1399.657600
-1400.317600
-1398.761500
-1399.342900
-1399.449500
-1400.430900
-1399.841900
-1399.664500
-1400.169600
-1399.818100
-1400.383700
-1399.550700
-1399.119000
-1399.369700
-1399.878300
-1399.320900
-1398.558500
-1399.056700
-1399.556400
-1398.762900
-1400.102800
-1399.993700
-1400.443200
-1399.143500
-1401.055700
-1400.815700
-1400.017100
-1400.316100
-1400.793000
-1400.577900
-1399.436200
-1399.422400
-1400.224100
-1399.950000
-1399.164600
-1399.369700
-1399.721700
-1399.224100
-1399.276000
-1399.676700
-1399.230900
-1399.893300
-1399.786200
-1400.055000
-1399.508300
-1399.145400
-1400.055900
-1400.495100
-1400.422400
-1399.807900
-1399.843700
-1399.834600
-1400.570200
-1399.898200
-1398.865300
-1400.030500
-1398.838600
-1398.899900
-1400.231900
-1399.384100
-1399.171600
-1398.721200
-1400.334800
-1400.337300
-1400.515300
-1400.656100
-1400.603900
-1400.198100
-1400.899100
-1400.029700
-1400.391500
-1400.599400
-1399.538700
-1399.795900
-1400.858700
-1400.127300
-1400.046500
-1400.947400
-1399.641300
-1400.326700
-1399.756500
-1400.288200
-1400.020300
-1400.235600
-1400.899100
-1400.329600
-1400.246500
-1400.327400
-1400.026300
-1399.049600
-1399.756800
-1399.554000
-1398.333300
-1399.368900
-1398.431300
-1398.722000
-1399.041500
-1399.310800
-1398.520000
-1399.704500
-1399.225900
-1399.411000
-1399.212900
-1400.044800
-1399.058300
-1400.217300
-1399.560500
-1398.931100
-1398.685100
-1400.133700
-1399.233700
-1399.746500
-1399.606500
-1399.603500
-1398.914900
-1399.446300
-1399.350800
-1399.679200
-1399.049800
-1399.167000
-1400.758900
-1399.216300
-1399.255100
-1400.183500
-1399.885500
-1398.966300
-1399.170000
-1399.566600
-1399.243900
-1398.489500
-1400.029600
-1399.234300
-1399.489700
-1399.865700
-1400.054900
-1399.896400
-1400.322400
-1400.240400
-1400.238500
-1399.498800
-1399.633600
-1399.613400
-1398.921000
-1397.828700
-1398.900900
-1400.124700
-1400.185500
-1398.757400
-1400.137600
-1399.596400
-1399.940800
-1399.392300
-1400.187300
-1399.598800
-1400.291100
-1400.294600
-1398.504900
-1399.638800
-1398.379800
-1400.329400
-1400.589900
-1400.928600
-1400.671400
-1401.669100
-1401.572900
-1399.918700
-1401.256900
-1400.569300
-1400.859800
-1400.971600
-1400.554200
-1400.505100
-1401.227500
-1400.789200
-1400.245700
-1400.323400
-1400.906500
-1400.944600
-1400.354600
-1401.181900
-1400.607800
-1401.290800
-1400.751200
-1401.028800
-1400.071500
-1400.307700
-1401.476400
-1401.234300
-1401.195500
-1400.144300
-1401.508500
-1401.413200
-1400.102400
-1400.968900
-1400.946500
-1400.790900
-1401.579000
-1400.615100
-1400.682300
-1400.208700
-1400.324700
-1400.484600
-1400.850900
-1400.587700
-1401.166100
-1401.447200
-1400.455300
-1401.205700
-1401.237800
-1400.859800
-1401.457500
-1401.414800
-1398.513900
-1399.095000
-1398.166600
-1400.221200
-1398.822600
-1398.269300
-1399.249700
-1399.129900
-1399.966800
-1399.645200
-1400.007300
-1400.703400
-1400.139500
-1398.917500
-1400.402100
-1400.176500
-1399.886400
-1401.115200
-1400.076300
-1401.168900
-1400.338600
-1400.108900
-1401.219700
-1400.704300
-1400.420400
-1400.924000
-1400.104500
-1400.540800
-1401.305000
-1400.677200
-1400.234800
-1400.042100
-1400.618500
-1400.485000
-1400.591200
-1399.482500
-1401.699400
-1400.230800
-1399.447000
-1401.431600
-1400.126000
-1400.851700
-1400.914100
-1400.617400
-1400.238300
-1400.946000
-1400.903900
-1400.562800
-1400.801900
-1400.399700
-1400.112800
-1400.074700
-1399.804100
-1400.246000
-1401.334800
-1400.014900
-1400.310600
-1401.092100
-1401.172000
-1401.378300
-1400.431600
-1400.522400
-1400.854300
-1400.056700
-1400.247500
-1399.355500
-1400.492700
-1400.991200
-1401.043900
-1400.741400
-1401.021000
-1400.262700
-1400.288000
-1399.688200
-1400.088700
-1400.562800
-1400.847200
-1399.861500
-1400.746400
-1399.391400
-1401.123400
-1400.454200
-1401.242000
-1400.852300
-1399.559400
-1400.498100
-1399.988800
-1400.920800
-1399.261700
-1399.139300
-1399.432300
-1399.222800
-1399.791100
-1399.225000
-1399.823100
-1399.860700
-1399.374400
-1399.719100
-1400.239500
-1400.589500
-1399.320100
-1399.729200
-1399.551300
-1399.181300
-1399.398800
-1400.333200
-1400.130500
-1400.160000
-1399.785900
-1399.321300
-1399.450900
-1399.098600
-1399.682600
-1399.837200
-1399.004500
-1398.891200
-1399.507300
-1400.100700
-1400.632900
-1399.548200
-1400.087900
-1398.094200
-1399.284800
-1399.668000
-1400.338400
-1399.654300
-1399.844100
-1399.182600
-1400.314100
-1400.186000
-1399.954300
-1400.005400
-1399.895500
-1400.214900
-1399.941500
-1399.074300
-1400.785300
-1400.183100
-1400.258600
-1400.273900
-1399.940600
-1400.181400
-1399.327900
-1398.995300
-1399.981500
-1400.359000
-1399.900600
-1399.051800
-1399.708300
-1399.290000
-1399.940500
-1399.982900
-1399.479600
-1400.744500
-1400.647600
-1399.752400
-1400.779700
-1400.330800
-1400.046600
-1400.227100
-1400.057600
-1400.038300
-1400.479000
-1400.685100
-1400.372900
-1400.066600
-1399.584400
-1398.629100
-1399.855000
-1400.162700
-1400.623800
-1400.466400
-1400.920700
-1399.456600
-1399.617700
-1399.680900
-1399.733600
-1400.414800
-1400.797300
-1400.083400
-1400.099800
-1400.520200
-1400.317700
-1399.570000
-1400.970800
-1400.739400
-1401.064600
-1399.762600
-1400.474900
-1400.519800
-1400.996000
-1401.106500
-1400.384600
-1400.779400
-1400.827900
-1400.235100
-1400.644400
-1400.061300
-1399.535400
-1399.775200
-1399.555000
-1398.798600
-1398.918400
-1399.027300
-1399.313700
-1400.315900
-1400.221800
-1398.965300
-1398.299400
-1400.294200
-1399.794400
-1400.631200
-1399.657000
-1399.839900
-1399.745700
-1400.078200
-1401.047700
-1399.582600
-1400.193700
-1400.421800
-1399.714300
-1399.737500
-1400.251400
-1398.645500
-1400.497100
-1400.480100
-1399.517800
-1398.860800
-1399.353600
-1399.258500
-1400.178000
-1401.273900
-1399.830900
-1399.339900
-1399.627900
-1400.499700
-1399.268900
-1399.561900
-1399.865500
-1400.356700
-1399.703200
-1399.809200
-1398.392900
-1399.609900
-1399.851700
-1399.900700
-1399.052500
-1399.422500
-1399.652400
-1399.747700
-1398.853000
-1398.945100
-1399.187000
-1399.982400
-1399.964700
-1399.521600
-1399.985900
-1399.681400
-1399.525300
-1400.110100
-1399.247600
-1399.660700
-1399.295600
-1400.949900
-1400.596600
-1399.553200
-1399.654600
-1400.517700
-1400.352700
-1400.247800
-1400.092700
-1400.429800
-1401.104800
-1400.274200
-1399.749700
-1399.653600
-1400.074400
-1401.065800
-1400.602800
-1400.088600
-1399.838000
-1400.501000
-1400.697200
-1400.187800
-1400.106300
-1400.623800
-1400.892500
-1400.192500
-1400.296900
-1399.613800
-1400.994100
-1400.582500
-1401.077400
-1399.575400
-1400.263300
-1399.525200
-1400.441400
-1400.230400
-1400.513000
-1399.613800
-1400.223800
-1399.475700
-1400.305300
-1399.722000
-1400.652400
-1400.168100
-1400.689400
-1400.234500
-1400.193800
-1400.472600
-1400.281700
-1400.083500
-1399.451300
-1399.800200
-1399.178300
-1399.377000
-1399.239700
-1400.198400
-1399.918500
