-1402.405000
-1396.669800
-1395.750000
-1395.562000
-1395.056800
-1397.078200
-1396.921400
-1396.199800
-1396.723500
-1395.308600
-1396.417500
-1396.756000
-1395.761100
-1395.695200
-1396.612100
-1397.109000
-1397.289600
-1396.652900
-1398.055900
-1399.301100
-1400.131500
-1399.593600
-1399.742300
-1400.070600
-1399.852700
-1399.527800
-1399.942900
-1399.127000
-1397.712800
-1398.457500
-1398.792000
-1400.207400
-1399.577100
-1399.526200
-1399.171100
-1398.844500
-1397.828900
-1398.001800
-1398.334000
-1399.762700
-1399.269500
-1398.728200
-1399.524100
-1398.751300
-1398.681800
-1397.498800
-1399.070400
-1399.831700
-1399.424700
-1399.950000
-1399.941000
-1399.236100
-1399.146600
-1398.908800
-1399.580000
-1399.570800
-1399.286100
-1400.063200
-1399.970700
-1398.962600
-1400.027600
-1398.665400
-1400.264600
-1400.336700
-1399.773300
-1399.345800
-1399.252200
-1400.499100
-1400.462400
-1400.723800
-1399.641200
-1399.479500
-1400.124400
-1399.664100
-1398.602400
-1399.085400
-1400.256700
-1399.046900
-1399.232600
-1400.115400
-1399.017900
-1400.069200
-1400.517100
-1400.305500
-1399.905200
-1399.909200
-1399.614800
-1400.086300
-1400.469800
-1400.282000
-1399.906100
-1399.864100
-1400.632600
-1399.613000
-1400.176900
-1399.853100
-1400.553400
-1400.679700
-1399.292200
-1399.571700
-1400.175800
-1399.452600
-1399.185600
-1400.188900
-1400.145700
-1402.405000
-1398.806500
-1397.742800
-1396.969500
-1396.577500
-1396.178700
-1395.453400
-1394.733000
-1395.175200
-1395.498700
-1395.264400
-1394.866000
-1395.059300
-1396.135700
-1395.804600
-1396.519900
-1396.596300
-1396.204400
-1396.799900
-1396.256000
-1395.867300
-1394.929500
-1395.502300
-1395.640700
-1395.550300
-1395.631500
-1395.523300
-1396.212200
-1396.416700
-1396.330300
-1396.446000
-1396.786500
-1395.746000
-1394.907400
-1395.996900
-1395.525100
-1396.804900
-1396.455600
-1396.020400
-1396.191600
-1396.510800
-1396.278700
-1396.993300
-1397.218500
-1396.509400
-1397.039800
-1397.328200
-1397.443500
-1397.490000
-1397.635300
-1397.097100
-1397.262600
-1396.964600
-1397.171000
-1396.847100
-1396.726900
-1397.294400
-1397.254700
-1397.412600
-1397.384100
-1396.866800
-1397.515900
-1396.434700
-1397.879200
-1397.589200
-1397.148300
-1397.604400
-1396.495400
-1396.842800
-1397.387000
-1396.458000
-1396.824000
-1396.702500
-1396.765600
-1396.712400
-1396.484700
-1397.054400
-1397.736800
-1397.106800
-1397.385400
-1397.418400
-1396.087900
-1396.734800
-1396.593100
-1396.735100
-1396.408700
-1397.802000
-1396.833800
-1397.658300
-1397.409000
-1397.924000
-1397.908400
-1398.229500
-1398.748300
-1397.814800
-1398.316400
-1397.737100
-1398.809200
-1398.873500
-1398.285900
-1399.157000
-1398.010900
-1398.777000
-1399.807800
-1398.193300
-1398.976300
-1398.593600
-1398.583000
-1399.308700
-1398.565400
-1399.235800
-1398.153800
-1399.263000
-1400.167900
-1399.311000
-1399.174900
-1399.100500
-1399.328600
-1400.006800
-1399.570600
-1399.233900
-1398.916500
-1399.097200
-1399.609300
-1400.548500
-1399.237800
-1398.911800
-1399.233100
-1399.992900
-1400.254900
-1399.319100
-1399.921200
-1399.835400
-1399.645000
-1399.427300
-1399.327400
-1399.512800
-1398.813800
-1400.031500
-1400.538700
-1400.178300
-1399.921100
-1399.753400
-1399.173700
-1399.264500
-1398.867400
-1399.762600
-1400.367700
-1399.038700
-1399.303000
-1398.412300
-1399.134700
-1398.686300
-1398.633300
-1400.224300
-1398.682400
-1400.192600
-1399.885300
-1398.991700
-1399.624700
-1400.193500
-1398.991900
-1399.690600
-1399.305300
-1400.146500
-1399.107300
-1399.380200
-1399.318700
-1399.414400
-1399.926800
-1398.985800
-1399.752800
-1398.840100
-1399.643900
-1399.651200
-1398.841600
-1399.090200
-1398.641900
-1399.664600
-1398.426700
-1399.721700
-1398.607300
-1399.722800
-1399.577100
-1399.378600
-1399.163100
-1399.706400
-1399.086500
-1399.531500
-1399.594300
-1399.615100
-1400.131800
-1399.849500
-1398.998400
-1398.914500
-1398.529700
-1399.476200
-1398.416700
-1399.650200
-1399.293400
-1398.990700
-1399.003800
-1399.525900
-1399.323400
-1399.598900
-1399.597400
-1399.639600
-1399.716600
-1398.536200
-1398.704500
-1399.808400
-1398.937100
-1399.042500
-1399.764400
-1399.292400
-1399.149500
-1399.472600
-1399.338100
-1399.373800
-1399.342200
-1398.997200
-1399.720600
-1399.776800
-1399.523800
-1398.612100
-1399.963200
-1399.029600
-1399.872100
-1399.195600
-1398.927100
-1398.803500
-1399.607300
-1399.728900
-1399.409100
-1399.258400
-1398.886200
-1399.993300
-1399.112400
-1398.492000
-1400.072500
-1400.258300
-1400.265600
-1399.409500
-1399.238900
-1399.424300
-1399.405000
-1399.910200
-1400.840800
-1398.829300
-1398.847900
-1399.364700
-1399.734400
-1398.538700
-1399.353000
-1399.524200
-1398.451400
-1398.666600
-1399.739400
-1396.506500
-1395.755100
-1395.679800
-1394.341300
-1394.269300
-1396.808300
-1395.295100
-1394.376900
-1395.648000
-1395.186000
-1396.267300
-1395.934800
-1397.160500
-1397.604200
-1397.574900
-1397.749900
-1398.230800
-1397.430400
-1398.482100
-1398.325800
-1398.101600
-1397.440200
-1398.000000
-1397.131700
-1397.585900
-1398.187500
-1397.619400
-1398.367100
-1397.985300
-1398.822400
-1398.411900
-1398.371200
-1398.463800
-1398.243900
-1398.903100
-1399.325300
-1399.434700
-1398.483800
-1398.248900
-1398.211400
-1397.885300
-1398.479000
-1398.030300
-1397.504000
-1398.739500
-1398.431500
-1398.548700
-1398.141100
-1397.879100
-1397.470900
-1396.655000
-1398.530100
-1398.524800
-1399.056500
-1398.271600
-1398.204400
-1398.389300
-1398.311500
-1398.574600
-1398.898000
-1399.374400
-1399.423600
-1399.918500
-1399.804800
-1398.504700
-1399.709300
-1399.747400
-1399.988200
-1399.762900
-1399.939100
-1399.386100
-1399.219100
-1399.441000
-1399.631400
-1398.868600
-1399.550400
-1399.653900
-1399.808300
-1399.136200
-1399.248900
-1399.937900
-1398.942500
-1399.581100
-1398.512200
-1399.060900
-1398.927500
-1399.757300
-1399.645600
-1399.768300
-1399.993300
-1398.507000
-1399.748500
-1399.715100
-1400.572600
-1399.205000
-1399.971900
-1398.241300
-1398.317500
-1399.282300
-1399.151100
-1399.252600
-1399.528100
-1398.628400
-1398.705900
-1399.108800
-1398.685900
-1399.284600
-1400.188100
-1398.968300
-1398.689300
-1398.759500
-1398.834700
-1399.213400
-1399.882200
-1399.515200
-1400.206500
-1399.624500
-1400.326700
-1399.330800
-1400.824900
-1399.336600
-1399.393900
-1400.252800
-1399.803100
-1399.662700
-1399.322200
-1399.822800
-1399.662900
-1399.386900
-1399.016900
-1399.302500
-1400.487700
-1399.882500
-1399.322700
-1399.392400
-1399.572800
-1400.253300
-1399.563400
-1400.119200
-1399.195500
-1399.349600
-1399.176000
-1399.836400
-1399.946800
-1399.839900
-1400.663200
-1399.344900
-1399.777100
-1399.830700
-1399.656700
-1399.421400
-1399.225500
-1399.730700
-1399.966500
-1399.492700
-1398.915600
-1398.470900
-1398.974700
-1397.545700
-1400.461300
-1399.406200
-1400.087900
-1399.872700
-1400.447100
-1399.438300
-1399.985300
-1399.739000
-1399.799000
-1399.507600
-1399.744200
-1399.618600
-1399.509600
-1400.793800
-1399.954600
-1400.298800
-1399.581400
-1400.501400
-1400.316100
-1399.544800
-1399.442300
-1400.140600
-1399.598200
-1399.841200
-1399.597400
-1399.431000
-1398.696500
-1398.940800
-1384.538300
-1399.117500
-1399.573600
-1399.496900
-1399.734600
-1399.684600
-1399.394400
-1399.591900
-1399.367500
-1399.459800
-1399.089400
-1398.826100
-1398.847800
-1399.074600
-1399.880700
-1400.351000
-1399.958600
-1400.073900
-1399.007200
-1400.120600
-1399.694600
-1400.221100
-1400.017600
-1400.243100
-1400.048800
-1400.052700
-1400.429600
-1399.761200
-1399.928300
-1400.588600
-1400.214800
-1400.216600
-1399.587600
-1399.614200
-1399.677500
-1400.321000
-1400.078600
-1399.927900
-1399.991800
-1400.485900
-1399.873800
-1400.316300
-1399.930900
-1398.998600
-1400.188500
-1400.461300
-1400.314000
-1399.855200
-1400.592900
-1399.818000
-1399.773200
-1399.921600
-1399.416300
-1399.612600
-1399.999600
-1400.698500
-1400.308400
-1400.713200
-1400.665000
-1401.033100
-1400.084500
-1400.239800
-1400.493200
-1400.590200
-1399.487700
-1400.168400
-1401.099000
-1400.330600
-1400.295900
-1400.580900
-1397.867000
-1397.213400
-1397.384400
-1397.118000
-1396.842200
-1397.161100
-1397.314900
-1397.940300
-1397.665100
-1397.193800
-1397.777500
-1397.373900
-1398.006300
-1397.393600
-1398.361100
-1398.385500
-1397.751300
-1398.430500
-1398.323000
-1398.218500
-1398.618900
-1398.149700
-1398.415200
-1399.206100
-1397.838400
-1398.339000
-1398.094600
-1398.596600
-1399.365500
-1397.782400
-1398.776300
-1398.225100
-1398.809900
-1398.593800
-1398.215800
-1398.348600
-1398.754700
-1399.310600
-1399.221900
-1398.241500
-1399.129500
-1398.455700
-1398.892800
-1398.596200
-1398.261200
-1397.932100
-1398.501300
-1397.773100
-1398.105600
-1398.597500
-1398.561600
-1398.855400
-1398.968800
-1398.962700
-1398.706300
-1398.253200
-1399.386500
-1399.712500
-1399.224600
-1398.637400
-1398.561700
-1399.482800
-1398.766800
-1398.520900
-1398.747000
-1398.369300
-1398.031500
-1398.660900
-1398.110600
-1398.720700
-1399.474200
-1399.556600
-1398.430100
-1399.149800
-1398.374400
-1398.580600
-1398.765200
-1399.089700
-1398.713900
-1398.801900
-1398.614200
-1399.114800
-1399.037700
-1398.891800
-1399.000100
-1399.289900
-1396.969100
-1398.615700
-1399.241800
-1397.985900
-1398.300900
-1398.520400
-1398.970200
-1399.072200
-1398.412200
-1398.892000
-1397.913900
-1398.294900
-1397.740700
-1399.430800
-1398.402000
-1399.915600
-1399.765200
-1399.321400
-1398.727800
-1398.508300
-1399.414900
-1398.895000
-1399.330600
-1398.830500
-1399.322000
-1398.801900
-1398.577300
-1399.559300
-1399.444900
-1398.830100
-1398.443200
-1398.057500
-1398.346000
-1398.437100
-1398.406100
-1399.447400
-1399.594700
-1399.419700
-1398.291000
-1399.016600
-1399.743800
-1399.467300
-1398.334500
-1398.345500
-1398.742100
-1399.591200
-1399.478500
-1397.923300
-1398.006800
-1398.805200
-1399.141500
-1398.278100
-1397.892200
-1398.513600
-1399.103000
-1399.208300
-1399.291000
-1397.481400
-1397.167800
-1398.359200
-1398.889200
-1398.674100
-1398.842200
-1398.388700
-1398.278700
-1397.911500
-1397.851300
-1397.573200
-1398.137700
-1398.897900
-1398.887100
-1398.336200
-1398.231800
-1399.235900
-1398.686400
-1400.029000
-1398.927800
-1399.567600
-1399.129400
-1399.080000
-1398.584300
-1399.653800
-1399.072400
-1399.032800
-1399.358100
-1398.951800
-1399.653200
-1399.228100
-1398.822800
-1399.721300
-1399.741600
-1398.626100
-1398.596800
-1398.439600
-1399.436500
-1399.708400
-1399.684500
-1399.970500
-1399.310500
-1399.705500
-1399.352600
-1400.476800
-1400.155100
-1400.802900
-1400.153400
-1400.167700
-1399.323000
-1399.766300
-1399.593800
-1400.597100
-1400.048800
-1399.858700
-1399.157900
-1400.360400
-1399.200200
-1399.416600
-1399.833500
-1400.422700
-1399.728800
-1399.297500
-1400.039200
-1400.454600
-1400.331100
-1400.195200
-1400.750900
-1400.756200
-1400.081200
-1400.365700
-1400.029800
-1399.978900
-1401.273000
-1400.609300
-1399.888800
-1400.133900
-1400.115500
-1399.252500
-1400.465600
-1400.117800
-1399.649200
-1400.681800
-1399.909400
-1400.614400
-1400.681800
-1400.630600
-1399.353800
-1399.687400
-1399.482800
-1399.554500
-1399.943700
-1400.452200
-1400.124800
-1399.389700
-1400.423800
-1399.905100
-1399.035200
-1399.613000
-1399.722700
-1400.156200
-1399.002600
-1400.166200
-1400.237700
-1400.031800
-1400.688400
-1399.948700
-1400.125600
-1399.992900
-1399.709700
-1400.512300
-1399.512100
-1399.672400
-1397.033500
-1398.971100
-1398.966000
-1399.611100
-1399.127500
-1400.611900
-1400.210400
-1400.372700
-1400.255900
-1400.622600
-1400.972200
-1400.184600
-1400.131000
-1399.590300
-1399.126200
-1399.882800
-1400.094000
-1400.914800
-1400.303400
-1399.577400
-1399.506100
-1400.369100
-1400.533200
-1399.100200
-1398.605900
-1398.475200
-1399.627800
-1399.606200
-1399.541800
-1399.223500
-1400.116800
-1399.828400
-1399.015600
-1399.600800
-1400.235800
-1398.897000
-1400.176900
-1398.517400
-1399.978600
-1399.307600
-1399.865600
-1399.207500
-1399.395300
-1399.546900
-1399.533000
-1399.350800
-1399.878000
-1400.032300
-1400.483600
-1400.179100
-1400.040500
-1400.338300
-1400.445400
-1401.207200
-1400.071100
-1400.742200
-1400.366800
-1400.725200
-1399.643300
-1401.131500
-1398.898200
-1399.375000
-1399.566200
-1399.738300
-1400.345300
-1399.576900
-1401.281800
-1400.443100
-1400.422000
-1399.188700
-1400.618500
-1399.407200
-1399.324900
-1398.326600
-1400.233400
-1399.470900
-1398.834800
-1399.883900
-1399.760600
-1400.176000
-1400.029600
-1399.985800
-1400.724100
-1400.166300
-1399.473200
-1399.827800
-1400.266500
-1400.455200
-1400.448900
-1399.940600
-1399.203700
-1399.499000
-1398.402200
-1399.248900
-1399.521100
-1399.718200
-1398.976700
-1399.364100
-1399.199200
-1399.086800
-1398.466900
-1399.610200
-1400.094200
-1400.310700
-1399.620300
-1399.817700
-1398.993600
-1399.710300
-1399.439400
-1398.728000
-1399.236500
-1399.620100
-1399.468100
-1399.923800
-1399.036400
-1399.408400
-1398.432200
-1398.888400
-1398.583000
-1398.928500
-1399.258300
-1399.599100
-1399.141900
-1396.668400
-1400.411000
-1400.162200
-1399.378300
-1399.153100
-1400.103400
-1400.351900
-1399.747000
-1399.767300
-1399.783300
-1400.148600
-1399.393500
-1399.322300
-1400.026900
-1399.055500
-1400.101600
-1400.566600
-1399.836800
-1399.555600
-1400.083100
-1399.786300
-1399.354500
-1399.730300
-1400.764300
-1400.153600
-1400.502600
-1400.157100
-1399.427700
-1400.478700
-1400.000600
-1399.404700
-1398.464900
-1400.911500
-1399.983400
-1399.864500
-1399.871600
-1400.069300
-1401.518000
-1400.370100
-1400.157800
-1400.526100
-1399.135000
-1399.488800
-1399.509500
-1400.061500
-1400.090600
-1399.546600
-1400.723600
-1401.127700
-1400.290600
-1400.548800
-1399.002400
-1401.308400
-1400.690900
-1400.382900
-1400.534300
-1399.640000
-1400.516600
-1400.020500
-1399.696800
-1400.300600
-1399.767700
-1399.434800
-1399.204800
-1398.954900
-1399.558900
-1399.842100
-1399.746400
-1400.199500
-1400.460100
-1399.393800
-1400.228800
-1399.704000
-1399.877600
-1400.583300
-1399.766600
-1399.443300
-1399.911500
-1399.494000
-1399.132700
-1399.963200
-1401.188900
-1399.720100
-1398.700600
-1399.195200
-1399.860500
-1400.053800
-1400.145400
-1400.090600
-1400.161200
-1400.126000
-1399.690100
-1399.971700
-1400.731300
