-1017.880100
-1017.580400
-1018.081400
-1017.206700
-1017.891200
-1018.428500
-1017.847900
-1018.170700
-1016.687200
-1017.968700
-1018.576100
-1019.186900
-1018.193600
-1017.507500
-1018.316600
-1018.493100
-1019.526700
-1019.729600
-1017.955900
-1018.244000
-1018.634400
-1018.050700
-1018.746600
-1019.722700
-1017.847900
-1018.688100
-1018.564400
-1018.897800
-1018.769400
-1018.529600
-1017.876200
-1019.032200
-1017.460500
-1018.409700
-1018.745000
-1018.866800
-1018.174900
-1019.270600
-1017.612100
-1019.400500
-1018.366100
-1018.943600
-1018.681300
-1017.786600
-1017.401200
-1018.919100
-1018.061600
-1018.278100
-1017.743400
-1017.206800
-1017.759900
-1017.831200
-1018.558600
-1017.753600
-1017.454900
-1018.753300
-1016.880300
-1017.929400
-1018.541300
-1017.759700
-1017.384500
-1018.074900
-1016.919200
-1017.857100
-1018.067100
-1019.761600
-1018.345300
-1017.343200
-1018.753600
-1017.860100
-1018.292900
-1017.729500
-1017.572300
-1018.064000
-1017.156500
-1017.023100
-1017.843100
-1018.593100
-1018.223700
-1018.549300
-1018.728200
-1018.535300
-1018.317900
-1018.313400
-1018.515400
-1018.143900
-1018.861200
-1019.518200
-1018.456000
-1018.871800
-1019.717400
-1019.056500
-1019.453100
-1018.724800
-1019.550800
-1018.954000
-1017.534500
-1018.782700
-1018.420100
-1019.192500
-1018.604300
-1017.700100
-1017.957600
-1018.410500
-1019.073200
-1018.401500
-1018.273300
-1018.667300
-1019.489500
-1017.886300
-1017.852300
-1018.391400
-1018.161500
-1018.026800
-1018.971000
-1018.787200
-1018.578400
-1018.381800
-1018.132600
-1018.602400
-1018.025100
-1017.677600
-1018.780500
-1017.884300
-1018.027900
-1018.216100
-1018.740000
-1016.776100
-1018.240200
-1017.984500
-1017.008600
-1017.661200
-1018.242500
-1016.355000
-1017.706700
-1018.846100
-1018.659400
-1018.220900
-1017.625500
-1018.605200
-1018.761000
-1017.875700
-1019.345500
-1017.993100
-1019.553000
-1019.248400
-1018.605900
-1019.807100
-1018.942300
-1019.498100
-1019.451300
-1018.106300
-1017.117500
-1016.543900
-1018.192200
-1018.915400
-1019.140700
-1018.697100
-1018.227000
-1018.179700
-1018.839600
-1018.163300
-1019.025800
-1019.168400
-1018.994500
-1019.449500
-1018.833800
-1017.715800
-1019.108700
-1018.389500
-1018.326600
-1018.250500
-1018.331000
-1017.962900
-1018.550900
-1018.060200
-1017.808000
-1018.815500
-1018.360700
-1017.891700
-1018.039500
-1019.138300
-1018.408500
-1017.788500
-1019.449600
-1019.423700
-1018.481800
-1018.879000
-1018.230700
-1018.678300
-1018.554600
-1018.572500
-1018.518600
-1019.001000
-1018.710200
-1017.498400
-1019.154100
-1018.416600
-1018.366600
-1017.977900
-1017.333700
-1017.608100
-1017.785300
-1017.213500
-1016.853000
-1017.963400
-1018.013100
-1018.850500
-1017.955600
-1017.636500
-1017.719300
-1018.568900
-1019.116500
-1018.795600
-1018.440600
-1018.770200
-1019.325700
-1018.295800
-1018.384400
-1018.173000
-1018.047900
-1018.473200
-1018.081200
-1018.563700
-1017.867000
-1017.916300
-1017.971100
-1017.475500
-1017.398400
-1018.837500
-1018.672800
-1018.641600
-1018.727400
-1017.920200
-1017.459400
-1017.862900
-1018.991400
-1018.937100
-1018.667100
-1017.394500
-1018.297000
-1018.727300
-1018.296500
-1018.674900
-1018.856900
-1019.075300
-1018.376300
-1019.246200
-1017.927900
-1017.666900
-1018.025500
-1018.389100
-1018.300700
-1017.561700
-1017.651100
-1017.303900
-1017.678400
-1017.433000
-1017.708900
-1017.442000
-1018.572400
-1018.409400
-1018.627900
-1018.669500
-1018.006900
-1018.232600
-1017.569800
-1017.925900
-1017.596200
-1016.577100
-1016.772500
-1017.461700
-1018.147600
-1016.861200
-1017.360100
-1017.391600
-1018.921100
-1018.048300
-1017.418300
-1017.128100
-1018.006600
-1018.448800
-1018.506300
-1018.021500
-1017.646300
-1017.555800
-1017.375200
-1017.034100
-1017.201400
-1017.194100
-1018.149100
-1017.895000
-1017.771500
-1017.198900
-1017.952100
-1017.809300
-1017.833400
-1017.738300
-1017.299800
-1018.317700
-1018.469700
-1017.868800
-1018.548700
-1018.037400
-1018.321700
-1018.313500
-1018.727800
-1018.855400
-1019.489300
-1018.466100
-1018.937800
-1018.370200
-1018.182100
-1018.589700
-1018.721800
-1018.887000
-1018.418700
-1018.703500
-1018.739100
-1017.654000
-1018.131800
-1018.920800
-1018.685600
-1018.678600
-1018.616900
-1018.486500
-1019.142200
-1018.456700
-1019.037500
-1019.080600
-1018.701100
-1019.026300
-1018.339700
-1018.373800
-1018.577500
-1019.075700
-1019.254200
-1018.403700
-1017.221900
-1017.486300
-1018.227800
-1018.464400
-1018.566200
-1019.176100
-1018.053200
-1018.019300
-1018.007200
-1018.687700
-1017.566300
-1017.945700
-1018.525600
-1018.180500
-1017.912700
-1017.461800
-1017.321200
-1017.208300
-1018.201600
-1017.423900
-1017.179100
-1018.374500
-1018.857700
-1017.572600
-1018.041300
-1018.274000
-1018.094600
-1017.252100
-1017.300500
-1018.981300
-1018.119300
-1017.577400
-1017.731300
-1018.606900
-1019.049400
-1018.410700
-1018.741800
-1018.725600
-1018.747500
-1019.181800
-1018.304400
-1018.748100
-1019.324000
-1017.939200
-1017.459300
-1017.172600
-1017.480400
-1018.007700
-1017.868200
-1018.175100
-1017.501400
-1017.858800
-1017.754100
-1018.346000
-1018.568200
-1017.876500
-1018.062400
-1018.108800
-1018.906700
-1018.970900
-1018.548600
-1018.488700
-1018.663500
-1018.794200
-1018.517900
-1019.259600
-1019.318700
-1018.943300
-1018.223900
-1018.897900
-1018.955400
-1018.244800
-1019.013400
-1018.652900
-1018.908600
-1018.463400
-1018.453200
-1019.038700
-1018.933000
-1019.066500
-1018.735000
-1018.728400
-1018.379400
-1018.124600
-1018.309300
-1018.561000
-1017.921500
-1018.189400
-1018.272300
-1017.850900
-1017.931800
-1018.184900
-1019.068300
-1019.081700
-1017.403500
-1017.621900
-1017.750600
-1018.331400
-1018.239100
-1017.264200
-1017.888900
