   -0.108017    -0.401546    -0.635568     0.714407     0.505556     0.314158     0.983095     0.254940     0.445004    -1.652822    -1.319933    -0.826279    -0.083064    -0.192073    -0.524018     0.263899     0.262509     0.176440    -0.396181     0.640866    -0.568189    -0.741950     0.510738     0.791700    -0.292877     0.251071    -2.168648    -0.212485     0.353961    -0.163619     1.681260     0.033851    -1.268852     0.059353     0.600270     0.078673     0.360191    -0.913363    -0.003775     0.939244     0.147095    -0.161903    -0.046202     2.109158    -2.085892    -1.290032     0.848880    -0.478862     0.012581     0.633977    -0.432036     0.197166    -0.636927    -1.058479     0.728521    -0.080235     0.601322    -0.214628     0.104536     0.561042     0.146091    -0.099724     0.431028    -0.969866    -0.203398     0.115682    -0.911781    -0.248946     0.731764    -0.006648     0.115102     0.611218     0.895276     1.494384    -1.304186     0.790077    -0.200817     0.632189    -0.348708    -0.946155     0.442839    -0.641406     0.062187     0.841940    -0.024329    -0.384311     0.366713     0.955229     0.160377    -0.070234    -0.106735     0.580227     0.542732     0.368410     1.440296     0.668093    -1.262568     0.498841     0.323324    -0.207998    -0.645957    -0.225324    -1.089095     0.863657    -0.803089     0.358531    -1.192390    -0.242391    -1.417544     0.236469     0.413258    -0.205640    -0.320087     0.308449     0.108811    -0.165897    -0.129030     1.863388     0.326025    -0.135441     0.475107    -1.065830     0.255632     0.967791    -0.269387     0.021882    -1.550491    -2.232633     0.368184    -0.272091     0.150717    -0.329682     0.242224    -0.149047     0.253821    -0.582308    -0.376608    -0.497736     0.282753     0.185141     0.254962     0.140733    -0.064912    -1.517906     0.538780    -0.447349    -0.500068    -0.516647    -0.261233     0.052337    -0.914498     0.543713    -0.018390     0.916269     0.075844     0.459817    -0.446596    -1.448075     0.367258    -0.650600     0.222484     0.628042     0.025568    -0.277349    -0.090642     0.184704    -0.138921     0.827808     1.308986    -0.270454    -0.550300    -0.484470    -0.584810    -0.097870     0.476860     0.638624    -0.196400     0.294206     0.326020    -0.001869     0.166937     0.606088     0.273952    -0.622904     0.675361     0.891574    -0.212545     0.725156    -0.146062    -0.370578    -0.195446    -0.523235     0.056889     0.834579     0.067151    -0.138764     0.002016     0.159582     0.304163     0.598409     0.661810     0.209623     0.091994    -0.373272    -0.506544     0.173835     0.134469    -0.130466     0.507811    -0.279772    -0.389055    -0.508962     0.036417     0.107262    -0.427372    -0.779632    -0.397377    -0.705610    -1.150703    -0.186098    -0.015554     0.102683     0.502734     0.211771    -0.733774    -0.695491     0.493530    -1.224916    -0.333638    -1.084998    -0.269056     0.045129     0.275075    -0.948181    -0.500683     0.416875    -0.426338     0.304361     0.658017     1.177371     0.093738    -0.211209    -0.368941     0.921884     0.437168    -1.196624    -0.710320    -0.631418     0.826369     0.607393     1.380379    -0.058171     0.219842    -0.444801     0.804997     0.676904     0.350141     0.119967    -0.557614     0.098088    -0.481178    -0.754199    -0.974836    -1.044760    -0.438647    -0.537568    -0.112779     0.250580    -0.343999     0.164721    -0.129569     0.020720    -0.120173     0.679956     0.412511    -0.059810    -0.054682     0.442590    -0.040233     0.145695     0.080334     0.402153     0.683648    -0.024882     0.350586    -0.473745     0.440164    -0.422366    -1.004570    -0.570233    -1.089247     0.702912    -0.844560     0.617011    -0.564595     0.233843    -0.037934     0.230591    -0.303694    -1.115543     0.112480     0.373890    -0.377265     1.202608    -0.028435     0.031112     0.242422    -0.014994    -1.575966    -0.475423    -0.337634    -0.104760     0.962157    -0.037540    -0.576934     0.449721     1.016802    -0.934431    -0.006695     0.129902    -0.431833     0.077735    -0.040468    -0.167808     0.380177    -0.024378     0.055783    -1.115375    -0.145365     0.518564     0.508938    -2.096601     0.103775    -0.698066    -0.051889     0.893035    -0.347199     0.315224    -0.174749    -1.195348     2.129079     0.995907    -0.330459     0.526810    -0.219105     1.078912    -0.651974    -0.118549    -0.340975    -0.831974    -0.378353    -1.104580     1.251950    -0.120851     0.220041    -0.032658     0.565282    -1.273332    -0.164759     0.606447    -0.648805     0.540918    -0.217733     0.690253     1.301160     0.381563     0.566161     0.148829    -0.909994    -0.121205    -0.963439    -0.690676    -0.229024    -0.150761    -0.016878     0.653414     1.147514     0.234081    -0.948499    -0.294246    -0.968057     1.548693    -0.215599    -1.692043    -0.311580     0.134222     0.328805     0.999901     0.957728     0.515611     0.047317    -0.491947     0.390473     1.149852    -1.630397    -0.241081     0.683054    -0.528417     2.100373    -1.788680    -1.072155     1.423062    -1.633284     0.923089     0.316203     0.996515    -2.841834     2.088033    -0.041120    -0.064236     1.696946    -0.906070    -0.210406    -1.127043     1.052648     0.235585    -0.740605     0.766464     0.341808    -1.326992    -1.837358    -1.242554     0.832155     1.806167     1.274124    -1.311266    -1.046303    -0.016578    -0.342189    -0.345743    -1.548308    -1.542908     1.295716    -0.051378    -0.462913     0.579427     0.881212     1.652073     1.269112    -0.082394    -0.576468    -2.233704    -0.272313    -0.080774    -1.829646     1.024528    -0.402270     1.991242     2.626856    -0.032507     0.078499     0.574123     0.301894    -0.124671    -0.230930     1.622368     0.479761     0.309717     0.743607     0.352515    -0.835740    -0.313227     1.733253     1.002217    -1.691339     0.006196     0.137851    -0.703927    -1.038842     0.922868     0.750194    -0.538549    -0.826024     0.036513     0.406946    -1.124757    -1.346609     0.284361    -0.408516     0.669043    -0.215564    -0.856984     0.243467    -0.589297    -0.108823    -0.324356     0.723214    -0.344095     0.351081    -0.272940     0.872720     0.683511     0.816792     0.741423     1.093470     0.317083    -0.478566     1.962229     0.282631     0.733287     0.949911    -0.788507    -1.888008    -0.872771    -1.292256    -0.889294     1.414206     0.011551    -0.365246    -0.459062    -1.036928     0.498763    -0.867355     1.343681     0.909991     0.995291     0.231243     1.018517     0.151235    -0.435864    -0.376009     0.235922     0.372284    -0.546424    -0.066180    -0.477507    -0.135149     0.599468     0.271921     1.197883     0.250230     0.746594    -0.108531     0.944850    -1.091220    -0.391179    -0.272378     0.208722     0.367975     1.733584    -0.995766    -0.865179     1.435967    -0.085917    -0.244705     0.542000     0.804742     0.472084    -0.653072     0.623182     1.776501    -1.063221     1.363958    -2.099980    -0.560928    -0.827599     0.080014     0.266613     1.801134    -0.345252     0.686939     0.543892    -0.174109    -1.257282    -0.242722    -1.586420     0.093591    -0.372531     0.892968     1.509126    -0.767692    -0.965412    -0.056144    -0.501829     0.560372     2.786513 
   -1.420330    -1.417141    -0.776422     0.149644     1.385648     0.016833     0.083062    -0.763710     0.134780     0.491477     1.952946    -1.080644    -0.126824     0.067522    -0.544498     0.300920    -0.021003     0.310732    -0.157234     1.675264    -0.650805    -0.241177    -0.058860     0.166762     0.173628     0.759172    -0.809004    -1.087091    -1.272615     0.305687    -0.830948    -0.024763     0.796663    -0.100530    -1.238503    -0.147281     0.219085     0.383428     0.036229    -0.728333     1.121903     0.106671    -0.171895    -0.292334     0.919306     0.344736    -0.583275     0.216533     0.262490    -0.461351    -0.025340     0.389798     0.613566     0.569781    -0.589367     0.005544    -0.720321     0.438892    -0.275005    -0.353840     0.069952    -0.343195     0.017338    -0.805155     0.367695    -0.002281    -0.212614    -0.142614     0.031105    -0.020594     0.094536    -0.222482     0.280728     0.484214    -0.803920     0.096227    -0.120357     0.912960    -0.426289    -1.070976     0.240660     0.824444     0.264912    -1.160831     0.717249     0.823528    -0.500351     0.312133    -0.593444     0.287950     0.722271     1.028582    -0.960726    -0.057416     0.508393     0.977367    -1.192548     0.261764     0.420225     0.021768     1.050288    -0.349906     0.237570     1.129256    -0.422924     0.142393    -0.688596    -0.452011     2.082818    -0.647123    -0.774684     0.183023     0.714142    -0.746401    -0.557584     1.333330     0.423477    -1.272971     0.218162    -0.609945     1.264985    -1.486595    -0.248029     0.316519     0.015341     0.102445     2.519199     2.248290    -0.832214     1.244765    -0.737973     0.533794    -1.196651     0.230460    -0.117764     0.138576    -0.085796    -0.487529     0.560185     0.116717    -0.402572     0.142139     0.307956    -0.594928     0.394845    -0.054620     0.047269     0.988826     0.218640    -0.540676    -0.931019    -0.660471    -1.854201    -0.049851    -0.012247     0.146428     0.212169    -0.466402     0.446294     1.167821    -0.287095    -1.036398     0.295364     1.429463    -0.369085     0.221883     0.401635    -0.676580    -1.645316     0.442390    -0.295493    -0.307209     0.222888    -0.355166    -0.370398     0.042493     0.170619     0.568389     0.311477     0.773075     0.003006    -0.054027    -0.509116     0.403022     0.885088     0.575785    -0.452642     0.383186     0.297906     0.194141     0.750179    -0.023064    -0.021653     0.518457     0.157736     0.003407     0.585593     0.366594    -0.115144    -0.086112     0.023057     0.317533    -0.135605     0.315336    -0.593095    -0.636399     0.221566    -0.128395    -0.153973    -1.147325     1.036799     0.037077    -0.183268     0.518856    -0.944984    -0.486292     0.641184    -0.182701     0.591404     0.148269    -0.105429    -0.131713    -0.175336     0.811528    -1.225277     0.313572     0.597504     0.326929     0.793931     1.048306     1.097030     0.047040     0.014505    -0.669116     0.880087    -1.099634     1.415073     0.197895     0.190140     0.674635     0.354569    -0.645785     0.072271     0.171815    -0.130775    -0.157247    -0.374017     1.644817     0.935774     0.328019    -0.183086     0.140180    -0.019123     0.082717    -0.545956     0.013203    -0.221349     0.194624    -0.262735     1.774990     0.276898    -0.585637    -0.893910     0.219014    -0.774676    -0.404974    -0.199714     0.290788    -0.355767     0.306797     0.130095    -0.193669    -0.006969    -0.295776    -0.427811    -0.079489    -0.189411    -0.173221    -1.547090     0.079049     1.648633    -0.845836     0.011283     0.217619     0.391982    -0.148091    -0.173636     0.353742    -0.052098    -0.409908    -0.630162     0.039110    -0.268168    -0.228024    -0.510238     0.230392     0.001496    -0.301026     0.742622     0.454161     0.396419    -0.399828     0.627823    -1.624662    -0.415814    -0.117640     0.629860     0.372663    -1.119905     0.779368    -0.467884    -1.118460    -0.056742     0.789414     0.734612     0.077843    -0.115279     0.152330     0.032618     0.601540    -0.207998    -0.019896     0.509104     0.227377    -0.839702    -0.116790     0.686784    -0.251316     0.008069     0.365376     0.820636     0.592959     0.036031     0.031589    -0.044651    -0.614325    -0.228430     0.144865    -0.713227     0.015474    -0.310714    -0.612008     0.569605    -0.600602     0.118262    -0.328065     0.240850    -0.094961     0.352198    -0.851540    -0.542244    -0.120996     0.469476     0.141242    -0.154642     0.032314    -1.374627    -0.296566     0.459074     0.451098     0.537622    -0.307906     0.566575     0.623892     0.506414     0.441584    -0.269585    -0.333844    -0.033840    -0.652182     0.469365     0.734962    -0.443325     0.210245    -0.164955    -1.002824    -0.502754     0.242909     0.430957     0.337268     0.521676    -1.215277    -0.412144     1.337803     1.261917     0.861561     0.654984    -0.890957    -1.022424     1.023654    -0.654594    -0.164297     0.058776     0.351061    -1.924205     0.018206     0.645461     0.127308     0.355774     1.352801     1.387989    -0.940340     0.657392    -1.190794    -0.393413    -0.637520     1.112528    -0.904396    -0.347497     0.413740    -0.806954     0.098433    -0.107010     1.231157     0.775367    -0.090342     0.023855     0.072941    -0.007966     0.190131    -0.252457    -0.333773    -0.116192    -0.191602     0.454229     0.640631    -0.435654    -0.849767     0.591276    -0.782328    -1.681417     0.081296     1.125741    -1.117556     0.132888    -0.125596    -0.442426     0.833311    -2.247657     0.026907     1.470785     1.949217    -1.679672     0.214918    -1.869585     1.715899     0.128670    -3.920900    -1.137672     0.038873     0.934991    -0.037096     0.217367    -0.470072    -0.138832     0.972462    -1.258080     0.001184     0.545452     1.301259     0.409364     1.831179    -1.546470     0.632787     0.492490    -0.705371    -2.048985     1.431727     1.978060    -0.689641     0.606442    -0.681387    -0.724177    -1.005095    -0.210836    -0.594095     0.318808     0.403896    -0.875091    -0.273651     0.291858    -0.316897    -0.761390    -0.202406     0.247756    -0.111045     0.338138     0.615660     0.599465    -1.537942     0.653600     0.301253    -0.366509    -0.115127    -0.229668    -0.508834    -1.105709     1.192932    -0.777280    -1.011762    -0.507091    -1.307255     1.307497    -1.740430    -0.721158     0.329961    -0.220800     0.063985    -1.529728    -0.733971    -0.031809     0.083099     0.304720     0.626295    -1.041976    -0.303232     0.577404     0.503028     0.143063    -0.232155     0.118889     0.176031     0.244393    -1.356736     3.179880    -0.083216     0.070558    -0.543113    -0.299044     0.212071     0.665873     0.996733    -0.493026    -0.390987     1.699685     0.798475    -0.567828    -1.231404     0.070248     1.687164     0.278297    -0.710272    -0.686939    -0.023330    -0.770027     0.164329     1.004646     0.024177    -0.959915    -0.410475    -0.563684     0.475556     0.010341    -0.071257     1.364883    -0.544213     0.420943    -0.159729     0.012870     0.468033     0.080327     0.722358    -0.495098     1.222516    -1.255932    -0.217497    -0.714296     1.086062    -0.724509    -1.198856     0.858916     0.365980    -0.240733     1.248931     0.375293    -1.805361 
    0.072921    -0.339295    -0.814141     0.517577     0.073858    -0.716485     0.282596    -0.414123    -0.448263    -1.256958    -1.189991     0.691195    -0.084028    -0.021517    -0.436576    -0.912549    -0.325049    -0.187167     0.025509     1.589864    -0.231661    -0.155920    -0.083807     0.313260     0.052922     0.958982    -1.369964    -0.682400    -0.797087     0.249018    -0.273264     0.365070     0.190187     0.172869    -0.187131     0.265816    -0.505836    -0.190847     0.085459    -0.964256    -0.186461    -0.169807     0.871371     1.306816    -0.898575    -0.560221     0.705445    -0.554117     0.499436     1.302131    -1.304502    -0.241614    -0.197216    -0.093911    -1.513405     0.079826    -1.769167    -0.126691    -0.149799     1.001727     0.801500     0.558126    -0.050946    -1.048127    -0.407805     0.239986     0.292638     0.303477    -0.155344    -0.506617    -0.320938    -0.049962     0.716358     0.822224    -0.540301     0.026180     0.380333    -0.027838     0.187781     0.336630     0.253678    -0.227119     0.110273    -0.527653    -0.051317    -0.267124     0.088708     0.966584    -0.196484    -0.158346     0.438978     0.730672    -0.641982     0.131162     0.121398    -0.203447     0.190943    -0.245441     0.114178     0.293442    -2.268430     0.016032    -0.340062     0.202745    -0.990614    -0.180933     0.706638     0.392148     1.345287    -1.109609    -0.686782    -0.420407     0.383071    -0.110347    -0.333356    -0.515007    -0.028805     0.613930    -0.018812     0.028504    -0.324950     0.120872    -0.158510     0.601066    -0.393723     0.112932     0.415207    -0.228999     0.153333     0.481975    -0.500620    -0.077132    -1.835237     0.687418     0.217981    -0.372544     1.224321     1.101391    -0.736720    -1.750821     0.869380     0.120102     0.566952    -0.421020     0.884163     0.297439    -0.147591     1.681935     0.790719     0.366947     0.068840    -0.271035    -0.139118     0.087958    -0.043894    -0.249086     0.869738     0.985645    -0.107568     0.101702     0.152538     0.857406     0.092443    -0.250685    -0.042409     1.351810     0.131231     1.853434    -0.706363    -0.587285     0.471555    -0.416551    -1.766597     0.680969     0.118172    -0.108073     0.712183     0.198488     0.680555    -0.390779     0.476009     1.271795     0.171466     0.049149     0.444981     0.419728     0.587722    -0.018258    -0.239852     0.347880     0.285022    -1.526139    -0.296354    -0.122077     0.084853    -0.224862     0.213409    -0.069017     1.187860    -0.028955    -0.243340     0.477077    -0.464869    -0.153701    -0.041281     0.215622     0.020675     0.537366    -0.224958    -0.535641     0.981683     0.567318     0.012788    -0.322540     0.190224    -0.097608    -0.177748     1.004193     0.453747     0.008433    -0.198422     0.193015    -0.087220    -0.111196    -0.653716    -0.398681     0.021445    -0.217832     0.163907    -0.089560     0.118881     0.079593     0.452502    -1.017778     0.892236    -0.820862     0.919270     0.547941     0.791770     1.092801    -0.812272     0.149692    -0.003091    -1.668884    -0.134093     1.144530    -0.225457     0.447733    -0.364290    -0.080136    -0.510061    -0.035568    -0.362010    -1.766987     0.584327    -0.031414     0.968269    -0.536190     0.220185     0.500084     0.343643     0.052531    -0.769468    -0.811185     0.214812     0.201032     0.021530     0.312988    -0.341458     0.421873     0.278172    -0.192662    -0.050138     0.314005    -0.134018     0.066181     0.110565    -0.848925     0.456408    -0.457633     0.151485    -0.279499    -0.386162     0.375549    -0.414962     0.917450     0.175942     0.383715     0.731438     0.205712     0.504160    -0.012299    -0.598131     0.115044     0.767126     0.433681     0.106528    -0.389335     0.652551     0.895026    -0.654721    -0.079432     0.122756     0.000347     0.442446    -0.321486    -0.207813    -0.066244    -0.385206    -0.979114     1.206104     0.981646     0.299929    -0.127564    -0.994806    -0.446996    -0.045133    -0.744719     0.027568     0.207634    -0.012756     0.020692     0.374513     0.060248     0.670637     0.488342    -1.045192     0.895118    -1.017824    -0.168238     0.401369     0.694905     0.071629     0.092873     0.035747     0.752434    -1.967372     0.329529    -1.109972     0.567217    -0.488811     0.185201    -0.318696    -0.434710    -0.065356    -0.206611     0.899699     0.977218    -0.127789     0.112774    -0.548430     0.172420    -0.903645     0.909822     0.787764     0.427078     1.511510     0.169626    -0.407936     0.118407    -0.174016    -0.641891    -0.033937    -0.374499     0.296660    -0.337116     0.155290    -0.273778     0.404119     0.052847    -2.192114    -0.756115     0.091871     0.122007    -0.031940     0.064434     0.018203    -0.007990    -0.967529    -0.028984    -1.679727     1.137442     0.570918    -1.505144    -0.744868     0.990533     1.316134     1.284600     1.608301    -0.235166     1.139322     0.419749     0.888884     0.104442    -1.774070     0.185034     0.437881    -0.727368     0.618720     0.107585    -0.027204    -0.754305     1.346373    -0.004468    -0.117966    -0.325453    -2.555130     1.777263    -0.429289    -1.502461     1.370968     1.266618     0.010439     1.302111     0.718919    -0.449798    -0.047484     0.048283    -0.181709     0.001885    -0.691839    -0.931121     0.779344     0.026237    -0.042924     0.387492    -0.790662     0.121595     0.027062    -0.468783    -0.743898     0.850364    -0.550658     2.536196    -0.105087     0.633051    -1.191484     0.394422    -0.767881     1.156041     0.825882     0.005890     0.480334     0.070205    -0.343347     0.453324     0.085439    -0.948457     0.711836    -0.082793     1.568361    -1.906571    -0.743874     0.628746     1.317192    -0.680139    -2.405152    -1.405057     0.080698     0.218798    -0.095884     0.408483    -0.742411    -1.107700    -0.515958    -1.473677     0.315978    -1.773520     1.363331     2.291190    -1.359017    -0.450733    -0.224626    -0.105715    -0.133777    -1.182935    -0.505636    -0.856774    -0.023688     1.433633     0.300348     0.502483    -0.161238    -1.850134     0.391245     0.168650    -0.753008     0.207562     0.480160    -0.518372    -0.468586     0.125329     0.109295    -0.812579    -0.991166     0.538920     0.367697     0.398943    -0.078509    -0.549293     0.845473    -1.763597    -0.106167    -2.335204     2.271920    -0.672153    -1.330598     0.138129     0.137633     0.592835     0.194855     0.889952    -0.343996    -0.093292     0.407600     0.066787    -0.025030     0.332162    -0.375900    -0.615549    -0.169605     0.066756     0.670726     1.141079    -0.458675    -0.712441    -0.327154    -0.428363    -0.775231     0.147058    -0.130687    -0.536736    -1.084685    -1.152933     0.674070    -0.480244    -0.160779     1.477439    -0.950582    -0.093421     0.188501     0.430123     1.510781    -0.534154    -1.152694    -0.012321    -1.755169     0.051221     1.506452    -0.766843    -0.803592    -1.338057     1.284764     0.558595     1.137400     0.365297    -0.629384    -0.624881     0.182496     0.918145     0.172727    -0.766553    -0.095666    -1.443072     0.165080     0.302921     0.570399     0.447661     1.947761     0.627529    -0.214055     0.155138     0.162271    -0.285773    -0.125711     3.116444 
   -0.957507    -1.138755    -0.317242     0.664250    -0.966763    -2.547501    -0.003854     0.595170     0.359295     0.371535     0.139514    -0.335027     0.041576     0.376109     1.595661    -0.261813    -0.286573    -0.484617    -0.437038     0.989950    -0.157481    -0.538468     0.060695     0.414379    -0.387839     0.618293    -1.033347    -0.429124    -0.302485    -0.168097    -0.615955    -0.147974     0.385009    -0.311362    -0.910100    -0.342446     0.222177     0.161155    -0.191051     0.775843     0.459154    -0.447348    -0.442751     0.758323    -0.328690    -0.398596     0.543473     0.572970     0.274579     0.814627    -0.741652    -0.401570     0.292904    -0.191879     0.471859    -0.194751     0.286888    -0.220636    -0.570825     0.808488     0.798473     1.083734    -0.232836    -0.122616    -0.363262     0.227199     0.064091     1.115706    -0.299286    -0.508468    -0.048843    -1.063888     0.112484     0.170780    -0.212875     1.446127    -0.752753     1.342805     0.573020    -0.892131     0.580362    -0.314069     0.311271     0.752736    -0.527002     0.111882     0.148564     0.921823    -0.059910    -0.207725     0.965589     0.744607    -0.905557     0.067974    -0.298503     0.083108     0.606468     0.288030    -0.034499     0.314819    -0.792350     0.079505     0.687829    -0.634929     1.010620     0.263121    -1.098827    -0.488085    -0.278730    -0.086506    -0.340980    -0.008048     0.157318     0.117407    -0.918172     0.593338     0.298620    -0.161668    -0.919454    -0.095614     0.302832    -0.735553     0.160518    -0.417739     0.496690    -1.003591     0.850477     0.182463     0.576159    -0.219061    -0.206252    -0.129274    -1.976831     0.861802    -0.882512     0.209432     0.884993     0.409631    -0.497670    -0.085519     1.023226     0.608760    -0.142937     1.013664    -0.262951    -0.029945    -1.030567     0.771010     0.411632    -0.257399    -0.706063    -0.260618    -0.940242     0.622145    -1.155206    -0.274808     0.752450    -0.343120    -0.580705    -0.078705    -0.357154    -0.054899    -0.754040    -0.584677     1.582020    -0.043092     0.094803    -0.515293    -0.491057    -0.111579     0.405708    -0.666913    -1.054501     0.125807     0.218932    -0.699217     0.633072     0.015980     0.622053    -0.441637     0.939546     1.332327     0.081531     0.572394     0.470323    -0.558013     0.392294     0.559411    -0.193700    -0.644633     0.351528    -0.192370    -0.017265    -0.082964    -0.338933    -0.173760    -0.506765    -0.050627    -0.306399     0.505472     0.149809    -0.345348     0.385824    -0.681717     0.125316     0.609124    -0.066196    -0.045917     0.204701    -0.116278     0.062815     0.803518     0.089619     0.764230     0.302779     0.511645     0.221421    -0.423555    -0.791913    -1.736285    -1.014016     0.562182     0.487656     0.379607     0.409755     0.193668     0.156380    -0.665492    -0.737441     0.291665    -1.097354     0.473302    -0.823659     1.184938     0.026535    -0.217326     0.756865    -0.132761     0.016004     0.308360    -0.795914     0.385049    -0.332710     0.618746     0.205685    -0.888555    -0.565139     1.286820     0.683022    -0.345751    -0.584507     0.106783    -0.022590     1.066056    -1.637845     0.383237    -0.231209    -0.088340    -0.652618     1.069977    -0.485059     0.375416     0.979171     0.738305    -0.672183    -1.084115    -0.096970    -0.091868    -1.009349    -0.119167     0.503982    -0.908753    -0.121133    -0.168158    -0.266194     0.196443    -0.138116    -0.651312     0.373794    -0.013787     0.113285    -0.546607     1.188654     0.069890     1.315368    -0.088669    -0.667070    -0.039789    -0.106305     0.335442     0.513797     0.322590     0.089905    -0.422119    -0.308837    -0.125933    -0.485015    -1.132816     0.351485     0.464010    -0.296978    -0.339454     1.690086    -1.640491    -0.405694     0.037290    -0.297428     0.077703    -0.311846    -0.650340     0.474792     0.352065     0.336534    -0.089711    -0.898180     0.098050     0.947285    -0.642790     0.123590     0.265872     0.043552     0.408889     0.000365    -0.541571     0.226913     0.773948    -0.343302     1.155804    -0.397589    -0.445110    -2.248303    -3.187256     0.082779     0.213174     0.454519     0.278316    -2.570465    -0.024440     0.288286     0.145296    -0.037204     0.196724    -0.101089    -0.864966     0.859034    -0.492168     0.021237     0.966945    -0.286308    -0.981343    -1.112351    -0.238363     0.204628    -0.422772    -0.117978    -0.115018    -0.950299     1.241410    -0.686953    -0.721396    -0.286702     0.885931    -0.440730    -0.384295    -0.375564    -0.605234    -1.691741    -1.173278     1.524288     0.444008    -0.096699     0.013904     0.960890    -1.264457     0.457038    -0.983077    -0.800444    -0.116689    -0.224551    -0.659783    -1.048269     0.053969    -0.229147     0.332319     0.318784     2.503430     3.269224    -0.350289    -0.665324     0.138505     0.296395    -0.027314    -1.177498     0.964200    -0.877998    -0.590332     0.895597    -0.566382     0.691502     1.112066     1.089057    -0.119051    -0.986348    -0.869327     0.412574     0.336010    -1.875145    -0.533416     0.241913    -0.861805     0.883136    -0.392982     0.983196    -1.198972    -0.465299    -0.695025     0.181675     0.915305    -1.015819     1.317975    -1.569281     0.213999    -1.078303    -0.108955     0.706407    -1.693129     0.110937    -0.012016    -0.027732    -0.406840    -0.301659     0.985955    -1.107252     0.488702    -0.052641    -0.457926     1.859254    -0.170155     0.246759    -0.052437     0.275904     0.772890     0.210761    -0.131255     0.238731     0.086709     0.959810    -0.168325    -0.272964    -0.000988     2.320029    -1.115730    -0.116994     0.589202    -0.258537    -1.866462    -0.951132    -0.682268     1.291821     0.232921     1.460212     1.601849    -1.135701     0.602807     0.505038     0.855224     0.132874    -0.719414     0.914618     1.270565    -0.215891    -0.137014     0.224129    -0.247023    -1.735949    -1.861017     0.036341     0.232330    -0.894731     0.180672     0.206670     0.306120     0.673110     0.562684    -0.808651     0.340292    -0.390595    -0.666861     0.237427    -0.808201    -0.883568    -0.751855     1.819658     1.799732     0.495248    -0.426616    -0.535447     0.625321    -0.026120     0.413661     0.261630    -0.047762     0.984467    -0.860266     0.823832    -0.478662     1.035047     0.524845    -1.087739    -0.741906    -0.309514    -0.754418     1.864407    -0.354318    -1.667804    -0.417288     0.847362     1.509380     0.058964    -0.261860     1.137818     0.078465    -0.367635     0.189837    -0.034837    -1.085569     0.322083    -0.975788    -0.765439    -0.384190    -0.059270     1.217904    -0.044328    -0.273183     1.741938     1.175146    -1.199118     0.891754    -0.719643    -0.423587     0.011753    -0.097033     1.552553    -0.441270    -0.293375     0.358528    -1.439909    -0.289143     0.895518     1.865044     2.722891    -0.305292     1.700413     0.154088    -0.451161     0.680528     0.998298    -1.873648     0.534096     0.733971     0.979168    -1.508842     0.485422     1.119614     0.787158    -0.613709     0.573534     1.121768     1.049873    -1.230963     0.215734     2.095426     0.463098     0.116151     0.509274     0.526334 