     6.55771     23.79776     13.73473      3.40500     22.99514     14.61750      1.56559      5.21347     15.35448      4.95796      5.00408     15.31080      0.00000      4.06608      0.97418      3.41105      4.06608      0.97418      1.46255      6.70083      2.48546      4.79710      6.56067      2.48145      6.43330      9.11642      4.02482      3.18851      9.13898      4.21128      6.65949      0.97596      2.17992      3.63596      0.67523      2.01932      1.46763      3.36008      3.82235      5.00864      3.38545      3.67671      0.00000      5.83488      5.47515      3.41104      5.83488      5.47515      1.22042      8.40673      6.97928      4.79103      8.24372      6.93444      6.22904     10.59089      8.86196      2.82012     11.40568      7.98816      1.97251      3.31374      7.42899      5.23290      3.38203      7.29725      0.14837     21.60290      5.82352      3.64838     21.06703      6.83620      0.00000      5.86581      9.03585      3.41105      5.86581      9.03585      1.79169      8.25461     10.59754      5.24470      8.25476     10.64879      6.79575     10.86108     12.19993      3.36786     10.72342     12.06286      0.14661      2.70537     10.16296      3.71340      2.47311     10.37054      1.96524      5.05896     11.96028      5.33121      5.03985     11.97243      0.00000      7.63460     13.53682      3.41104      7.63460     13.53682      1.78327     10.25950     15.08479      5.15532     10.37291     15.07138      0.23004     13.72230     15.30394      3.76125      9.24358      0.43512      6.69759      3.53063     15.67050      3.17653      3.58905     15.88225      1.38284      2.38933      1.55010      4.88128      2.56647      1.36539      0.00000      4.95048      3.22466      3.41105      4.95048      3.22466      1.12386      7.60885      4.54396      4.72695      7.47383      4.63867      6.41878     10.09014      6.79492      3.12718      9.60601      6.61692      0.19178      1.79688      7.54995      3.63471      1.80334      7.94471      2.09803      4.03291      9.85876      5.25946      4.45685      9.68764      0.00000      6.75021     11.28633      3.41105      6.75021     11.28633      1.85748      9.28131     12.77757      5.21488      9.20593     12.87798      0.14148     11.55541     14.47949      3.57472     12.03951     14.66839      4.85357     11.17436      5.89031      2.15259     13.33600     11.01319      0.36110     15.27359     10.04078      2.35809     15.76557     13.09904      6.39397     16.84298     12.83056      3.59890     18.03412     14.00929      6.71846     20.87685     14.74447      6.32962     17.44230     15.52463      4.87328     13.12104     13.52245      3.33499     16.07089      2.37113      2.23814     14.13036      0.61763      0.91240     12.69671      3.76079      1.55230     10.98582      1.86022      3.02455     14.20683      4.51916      2.98509     17.84805      4.47760      1.58359     17.56639      0.71918      4.34583     18.10106      7.10029      4.21423     15.49428      7.03814      0.58969     11.61507      6.04350      5.58442     17.77240     10.12024      3.13654     16.60847     10.47207      1.38366     17.74841      8.42087      5.54099     21.81913      8.59378      0.35766     14.32026      7.24690      0.89528     20.07843     10.38638      1.20458     16.65227      5.92582      6.04009     18.41623      4.75735      2.25441     13.04907     13.54824      4.96692     15.90302      0.50769      4.97529     12.55754      3.49096      1.50901     20.10962      0.76430      4.87653     14.71297     11.67619      4.45430     12.46180      0.82146      6.22474     17.47799      2.11736      1.44868     19.70647     12.89212      1.67607     21.74166      8.72125      1.52051     19.75240      3.26855      4.18859     13.77801      9.17077      5.46906     19.67941      0.54132      0.44424     13.36531      7.11119      6.81217     17.83411      4.97752      5.46485     14.53339     10.87094      5.73496     18.92305      1.10126      2.89300     13.51450     10.39580      1.85678     12.47065     10.75440      0.85187     14.52139     10.44007      2.72599     15.09558     13.64650      2.72562     16.64162     13.37997      5.71462     16.14525     12.50808      4.56259     18.01190     14.25527      3.17664     18.42972     14.78257      5.87761     20.48984     15.10811      6.28689     17.18290     14.54518      0.48806     17.44359     15.78575      5.59617     13.71782     13.94309      4.79322     13.61698     12.62680      4.12199     16.06129      1.77714      3.31172     16.83573      2.99820      2.97029     13.47060      0.60904      2.60641     14.80677      1.12374      1.18446     12.02188      3.14347      1.63544     13.28945      4.01963      0.84928     10.95406      1.22047      2.99628     14.87394      3.79185      3.82337     13.59935      4.23136      3.66646     18.22763      5.06092      2.50401     17.24263      5.10951      2.35589     16.98720      0.86962      1.11488     20.85609     16.01445      5.11303     18.30613      6.49555      4.03799     18.97834      7.37945      3.79322     15.40936      6.17193      4.10012     16.46672      7.23855      1.44578     11.80592      6.70649      0.76705     12.13911      5.12325      3.89178     17.20274     10.27677      2.65545     16.94660     11.24865      1.81122     17.10672      9.03830      0.43385     17.78527      8.68407      5.47408     21.79595      9.54543      5.11871     21.02162      8.12619      1.14390     20.04827     11.35717      1.21322     19.23403      9.94662      1.17273     17.06390      6.78397      1.13964     15.73357      6.12923      6.44590     19.29603      4.59085      1.66310     13.57593     14.20301      2.15194     13.37414     12.58821      5.45760     15.10777      0.18826      5.95559     12.72946      3.48518      4.73639     12.21557      2.56477      1.52334     20.05574      1.82007      1.75803     19.17064      0.53157      4.11304     15.19846     11.34153      4.18673     11.49863      0.58234      5.34342     12.60719      0.31213      6.19774     17.79254      3.02585      2.13782     20.35508     13.26587      0.71572     19.91172     13.51584      1.38720     21.15632      9.56735      2.13622     21.06629      8.03905      1.45821     20.61815      3.66247      2.20127     19.24521      3.75663      4.08285     12.93564      8.66232      3.93345     14.50630      8.52657      4.28938     11.78983      6.50599      1.70494     10.06571      2.08637      4.81602     11.51272      4.95662      0.46583     15.10980      9.04670      0.40469     16.35508     12.96879      6.42249     21.76166     14.38165      6.09762     16.94194     10.52089      5.89797     18.57126     10.65156      6.23440     14.51201      7.03618      5.52613     16.40814      1.13168      0.35886     17.35887      1.84908      4.84255     22.86346     16.04607 
     6.56791     23.79411     13.73124      3.39261     22.99676     14.60224      1.56944      5.22556     15.34598      4.95829      5.00998     15.30381      0.00000      4.06608      0.97418      3.41105      4.06608      0.97418      1.45325      6.69840      2.48059      4.80176      6.55408      2.48778      6.42813      9.12580      4.03311      3.17350      9.13222      4.20935      6.66147      0.98047      2.18185      3.63719      0.66479      2.01937      1.47016      3.34805      3.81771      5.01638      3.37979      3.69215      0.00000      5.83488      5.47515      3.41104      5.83488      5.47515      1.20895      8.41219      6.97663      4.79136      8.24734      6.93926      6.22488     10.59670      8.86602      2.82604     11.40633      7.98456      1.97674      3.31269      7.43243      5.24177      3.38553      7.29615      0.14043     21.61337      5.81486      3.64431     21.06631      6.82546      0.00000      5.86581      9.03585      3.41105      5.86581      9.03585      1.79597      8.26039     10.59159      5.23599      8.26659     10.64636      6.77971     10.85479     12.20522      3.37372     10.72850     12.06687      0.14750      2.70468     10.17081      3.70317      2.47064     10.36449      1.96865      5.04962     11.96105      5.33580      5.03514     11.97001      0.00000      7.63460     13.53682      3.41104      7.63460     13.53682      1.79191     10.26724     15.07864      5.15468     10.37292     15.06488      0.22416     13.71664     15.29862      3.76338      9.24777      0.41907      6.70146      3.52938     15.66162      3.17250      3.59856     15.88411      1.39023      2.38579      1.54248      4.87547      2.56960      1.36591      0.00000      4.95048      3.22466      3.41105      4.95048      3.22466      1.13091      7.60800      4.54991      4.72915      7.46847      4.63685      6.40405     10.07608      6.78552      3.11280      9.60817      6.61986      0.20182      1.79227      7.55308      3.63290      1.80451      7.95263      2.09180      4.02710      9.85030      5.25034      4.46322      9.66711      0.00000      6.75021     11.28633      3.41105      6.75021     11.28633      1.86768      9.28647     12.78324      5.21790      9.20690     12.87256      0.14211     11.55836     14.48174      3.57204     12.02850     14.66679      4.86347     11.17791      5.89072      2.14376     13.34665     11.00477      0.36748     15.28905     10.03853      2.36210     15.76884     13.11171      6.38367     16.85633     12.81977      3.61384     18.03655     14.01224      6.70972     20.88281     14.72954      6.34726     17.45196     15.52449      4.88670     13.13869     13.52028      3.32546     16.06520      2.37868      2.21356     14.13208      0.60684      0.88713     12.69363      3.77812      1.54010     10.99796      1.85804      3.03330     14.20921      4.51612      2.99522     17.86433      4.46705      1.59484     17.56834      0.72048      4.35499     18.10218      7.12283      4.22724     15.48564      7.02829      0.59554     11.60920      6.03043      5.58423     17.78584     10.11879      3.12560     16.62200     10.45598      1.37733     17.74439      8.40345      5.54343     21.81339      8.59328      0.33498     14.33911      7.25644      0.88693     20.07531     10.38909      1.21721     16.66392      5.93012      6.04766     18.41608      4.74609      2.23286     13.04624     13.53651      4.97021     15.92303      0.49754      4.96922     12.55901      3.49566      1.50231     20.10495      0.75796      4.88163     14.70739     11.68662      4.44614     12.45048      0.82682      6.22082     17.45021      2.10639      1.46077     19.71624     12.88418      1.68021     21.73330      8.71908      1.52737     19.75821      3.26127      4.19347     13.74976      9.15988      5.46667     19.68163      0.51144      0.42201     13.35575      7.14145      6.77787     17.83600      4.95142      5.42328     14.51284     10.92041      5.72374     18.94084      1.06671      2.93108     13.47921     10.39831      1.84931     12.44862     10.76959      0.91540     14.59755     10.44340      2.74940     15.10227     13.68520      2.68725     16.62523     13.41353      5.76501     16.16053     12.52050      4.56883     18.04205     14.27937      3.18467     18.43239     14.74587      5.86520     20.48714     15.09878      6.28087     17.18958     14.56217      0.50168     17.38914     15.77491      5.64448     13.68078     13.94055      4.77258     13.59077     12.59065      4.05391     16.03170      1.74678      3.33569     16.80080      3.03006      2.97258     13.47310      0.56763      2.60457     14.84324      1.17549      1.26824     12.02196      3.09542      1.70371     13.28226      4.03201      0.82197     10.98747      1.14675      2.92647     14.88257      3.79852      3.72908     13.60276      4.23425      3.68843     18.19630      5.06755      2.45543     17.27966      5.08032      2.36245     17.02242      0.81684      1.18925     20.80167     16.00276      5.08403     18.34298      6.47798      4.04899     19.00888      7.33497      3.78812     15.39281      6.17436      4.07852     16.44509      7.22381      1.39635     11.76455      6.65775      0.76530     12.09994      5.16160      3.90660     17.18179     10.21841      2.64495     17.01422     11.18162      1.80932     17.06773      9.05030      0.43869     17.78009      8.69912      5.47371     21.80027      9.57222      5.09940     21.02407      8.10148      1.13434     20.04677     11.35042      1.18037     19.25675     10.00298      1.18273     17.12119      6.82295      1.14357     15.71390      6.13715      6.46854     19.27729      4.62091      1.62917     13.61496     14.18811      2.16395     13.37387     12.60098      5.49109     15.12448      0.22173      5.92884     12.70215      3.47817      4.83016     12.25373      2.60686      1.49975     20.01196      1.78030      1.75430     19.14356      0.54089      4.09559     15.20325     11.35821      4.15838     11.49716      0.56346      5.29681     12.62693      0.33048      6.24659     17.77592      3.00834      2.04529     20.37906     13.26704      0.75246     19.90694     13.50599      1.39972     21.13368      9.51296      2.10915     21.14143      8.09791      1.39965     20.62621      3.66158      2.19340     19.24152      3.75621      4.13256     12.95722      8.56412      3.96238     14.48877      8.54238      4.27402     11.74611      6.48230      1.67677     10.04315      2.04419      4.81293     11.49851      4.96473      0.42689     15.10843      9.04677      0.41164     16.35982     12.98854      6.46412     21.78615     14.43535      6.06512     16.93724     10.45756      5.86378     18.58913     10.60678      6.25700     14.50067      7.01619      5.54335     16.41539      1.14061      0.33085     17.33719      1.85636      4.83112     22.80736     15.99690 
     6.57878     23.79095     13.72818      3.38023     22.99801     14.58762      1.57345      5.23639     15.33763      4.95823      5.01653     15.29694      0.00000      4.06608      0.97418      3.41105      4.06608      0.97418      1.44391      6.69491      2.47561      4.80717      6.54842      2.49346      6.42317      9.13552      4.04149      3.15729      9.12609      4.20810      6.66398      0.98404      2.18367      3.63695      0.65580      2.01960      1.47414      3.33609      3.81284      5.02322      3.37418      3.70815      0.00000      5.83488      5.47515      3.41104      5.83488      5.47515      1.19914      8.41721      6.97418      4.79298      8.25011      6.94586      6.22128     10.60237      8.86807      2.83185     11.40612      7.97930      1.98117      3.31155      7.43519      5.25038      3.38792      7.29525      0.13303     21.62548      5.80767      3.64004     21.06500      6.81354      0.00000      5.86581      9.03585      3.41105      5.86581      9.03585      1.80003      8.26649     10.58601      5.22750      8.27900     10.64423      6.76457     10.84911     12.21113      3.38042     10.73342     12.07099      0.14759      2.70547     10.17758      3.69230      2.46853     10.35743      1.97190      5.04082     11.96176      5.33985      5.03150     11.96620      0.00000      7.63460     13.53682      3.41104      7.63460     13.53682      1.80211     10.27419     15.07359      5.15447     10.37107     15.05919      0.21778     13.71066     15.29378      3.76517      9.25308      0.40522      6.70571      3.52795     15.65336      3.16827      3.60846     15.88610      1.39802      2.38171      1.53557      4.87118      2.57052      1.36708      0.00000      4.95048      3.22466      3.41105      4.95048      3.22466      1.13906      7.60758      4.55679      4.73156      7.46288      4.63533      6.38892     10.06228      6.77747      3.09769      9.61117      6.62216      0.21146      1.78697      7.55636      3.63143      1.80656      7.96088      2.08497      4.02060      9.84214      5.24288      4.46808      9.64763      0.00000      6.75021     11.28633      3.41105      6.75021     11.28633      1.87835      9.29114     12.78862      5.22112      9.20715     12.86697      0.14210     11.56281     14.48306      3.56907     12.01727     14.66297      4.87009     11.18222      5.89176      2.13538     13.35723     10.99439      0.37227     15.30485     10.03183      2.36359     15.77207     13.12260      6.37645     16.86772     12.81159      3.63442     18.03763     14.01266      6.69737     20.88502     14.71703      6.36852     17.46015     15.52401      4.90035     13.15626     13.51818      3.31056     16.05924      2.38947      2.19307     14.13333      0.59587      0.86898     12.69140      3.79535      1.52507     11.00894      1.85431      3.03777     14.21390      4.51364      3.00601     17.87936      4.45783      1.60360     17.56798      0.71721      4.36760     18.10628      7.14166      4.23950     15.47866      7.01894      0.60446     11.60500      6.02098      5.58625     17.79482     10.11745      3.11615     16.63410     10.43702      1.37088     17.73704      8.39145      5.54659     21.80625      8.59540      0.31586     14.35401      7.26555      0.87713     20.07387     10.39247      1.22911     16.67643      5.93515      6.05352     18.41653      4.73395      2.21040     13.04560     13.52848      4.97581     15.94150      0.48518      4.96430     12.55982      3.50461      1.49710     20.09775      0.75027      4.88517     14.70458     11.69759      4.43835     12.43329      0.82952      6.21718     17.42365      2.09437      1.47395     19.72656     12.87723      1.68070     21.72852      8.71917      1.53225     19.76355      3.25279      4.19747     13.72290      9.14819      5.46385     19.68234      0.48011      0.40315     13.39715      7.18768      6.77782     17.79709      4.95954      5.40376     14.49006     10.92006      5.75247     18.93611      1.09965      2.96322     13.45601     10.40112      1.83484     12.43062     10.78804      0.99938     14.66681     10.45104      2.78029     15.10981     13.73505      2.68210     16.63261     13.47025      5.81323     16.16673     12.52943      4.52499     18.06554     14.27793      3.14337     18.45832     14.77398      5.90061     20.50085     15.07885      6.29124     17.19958     14.59426      0.45885     17.34972     15.75931      5.66603     13.61897     13.96059      4.74225     13.55547     12.58884      4.02109     16.00154      1.70840      3.37805     16.77176      3.05410      2.93592     13.49744      0.53134      2.56728     14.85800      1.22218      1.31288     12.04120      3.06911      1.70734     13.25337      4.02182      0.85127     11.01724      1.11491      2.89086     14.86791      3.81033      3.67926     13.59678      4.20424      3.71256     18.16291      5.05541      2.39204     17.33761      5.03230      2.42935     17.03490      0.80978      1.24247     20.79826     16.01269      5.03120     18.34162      6.48713      4.03444     19.02690      7.30428      3.77477     15.34234      6.16416      4.08342     16.41419      7.21335      1.35627     11.71090      6.60739      0.74660     12.04792      5.14510      3.91152     17.16576     10.18291      2.63445     17.08963     11.13881      1.78009     17.09152      9.00544      0.45787     17.76904      8.70863      5.49204     21.79600      9.58633      5.08486     21.05002      8.08910      1.12580     20.04108     11.36220      1.16690     19.23971     10.03039      1.21152     17.16206      6.84544      1.13933     15.68824      6.15034      6.48843     19.28208      4.65425      1.59088     13.63218     14.14876      2.19239     13.34997     12.57664      5.50916     15.14799      0.25558      5.93039     12.69617      3.50224      4.87233     12.27978      2.57630      1.47292     19.99111      1.75686      1.72211     19.12974      0.53551      4.07728     15.20628     11.37029      4.15729     11.57469      0.57025      5.21224     12.65298      0.35852      6.26071     17.77685      3.04663      2.01048     20.41368     13.24356      0.71568     19.89312     13.50578      1.40457     21.12811      9.45968      2.10902     21.15584      8.09315      1.34791     20.64381      3.68320      2.19617     19.22325      3.76706      4.18111     12.99491      8.50526      4.00489     14.45789      8.56543      4.26481     11.69413      6.46873      1.65328     10.05199      2.00066      4.82224     11.49638      4.93956      0.37570     15.09998      9.11184      0.38960     16.38568     12.98900      6.51954     21.82973     14.47587      6.00995     17.03282     10.37774      5.83873     18.56326     10.56800      6.21008     14.51824      6.99245      5.56322     16.42802      1.14275      0.32767     17.32609      1.83966      4.81093     22.79022     15.92272 
     6.59040     23.78825     13.72537      3.36785     22.99908     14.57371      1.57764      5.24598     15.32944      4.95779      5.02366     15.29024      0.00000      4.06608      0.97418      3.41105      4.06608      0.97418      1.43453      6.69046      2.47061      4.81338      6.54367      2.49843      6.41855      9.14535      4.05009      3.14004      9.12047      4.20757      6.66701      0.98671      2.18533      3.63529      0.64826      2.01993      1.47953      3.32433      3.80766      5.02902      3.36873      3.72457      0.00000      5.83488      5.47515      3.41104      5.83488      5.47515      1.19097      8.42161      6.97202      4.79556      8.25207      6.95413      6.21824     10.60783      8.86781      2.83762     11.40474      7.97235      1.98581      3.31031      7.43722      5.25871      3.38905      7.29462      0.12616     21.63925      5.80185      3.63551     21.06342      6.80060      0.00000      5.86581      9.03585      3.41105      5.86581      9.03585      1.80390      8.27285     10.58092      5.21936      8.29182     10.64242      6.75045     10.84411     12.21756      3.38792     10.73836     12.07519      0.14685      2.70768     10.18326      3.68085      2.46671     10.34937      1.97504      5.03259     11.96231      5.34336      5.02894     11.96086      0.00000      7.63460     13.53682      3.41104      7.63460     13.53682      1.81378     10.28037     15.06966      5.15480     10.36734     15.05435      0.21092     13.70442     15.28970      3.76662      9.25947      0.39354      6.71021      3.52636     15.64575      3.16395      3.61865     15.88810      1.40613      2.37714      1.52933      4.86850      2.56916      1.36897      0.00000      4.95048      3.22466      3.41105      4.95048      3.22466      1.14812      7.60769      4.56443      4.73412      7.45725      4.63423      6.37333     10.04895      6.77093      3.08192      9.61493      6.62390      0.22056      1.78104      7.55985      3.63045      1.80947      7.96930      2.07744      4.01350      9.83429      5.23703      4.47152      9.62910      0.00000      6.75021     11.28633      3.41105      6.75021     11.28633      1.88942      9.29528     12.79369      5.22455      9.20660     12.86121      0.14155     11.56856     14.48345      3.56571     12.00605     14.65680      4.87559     11.18599      5.88894      2.12897     13.36539     10.98066      0.37673     15.32160     10.03026      2.36571     15.77408     13.13629      6.37353     16.88094     12.80690      3.64761     18.04070     14.01487      6.68760     20.88657     14.70426      6.38624     17.46831     15.52450      4.91066     13.16964     13.51718      3.29218     16.05185      2.40081      2.17559     14.13961      0.58750      0.86077     12.68753      3.80851      1.50811     11.01955      1.84931      3.03605     14.22090      4.51431      3.01654     17.89347      4.44804      1.61591     17.56348      0.71239      4.37933     18.11382      7.16034      4.25068     15.46977      7.00751      0.61007     11.59928      6.01303      5.58033     17.80662     10.10696      3.10748     16.64552     10.41630      1.36360     17.73005      8.38077      5.55107     21.79907      8.60163      0.29511     14.36997      7.27330      0.86617     20.07308     10.39710      1.23983     16.68687      5.94360      6.06003     18.41578      4.72108      2.18766     13.04658     13.52355      4.98405     15.95946      0.47241      4.96118     12.55905      3.51437      1.49283     20.08807      0.74007      4.88468     14.70558     11.70754      4.42681     12.41950      0.83719      6.21440     17.40101      2.08785      1.48295     19.73626     12.87288      1.67800     21.72953      8.71930      1.53567     19.77057      3.24590      4.20198     13.69643      9.13891      5.46079     19.67649      0.44876      0.39446     13.42414      7.24133      6.77646     17.75402      4.99380      5.40667     14.46807     10.87484      5.77786     18.97503      1.12488      2.95534     13.43735     10.42010      1.82692     12.46190     10.81414      1.07402     14.74837     10.44438      2.78471     15.15695     13.74645      2.69645     16.64175     13.52366      5.79991     16.11675     12.50753      4.57011     18.08609     14.29262      3.12351     18.45134     14.75970      5.89600     20.50369     15.08151      6.30540     17.20019     14.58632      0.48083     17.31709     15.77450      5.68564     13.57375     13.99709      4.72411     13.53460     12.61520      4.00858     15.97685      1.68665      3.43537     16.76004      3.07388      2.89846     13.51742      0.50561      2.47264     14.79233      1.21790      1.27194     12.09597      3.09799      1.63578     13.22035      4.01158      0.91857     11.04915      1.11181      2.88559     14.85704      3.80133      3.71298     13.55495      4.13074      3.74262     18.12939      5.03933      2.32768     17.40475      4.98350      2.48156     17.07550      0.84287      1.25084     20.82377     16.00049      5.02316     18.31525      6.46992      3.99841     19.01178      7.29089      3.77132     15.27207      6.17653      4.10389     16.41459      7.20904      1.40598     11.67494      6.61042      0.72677     12.00744      5.05813      3.90287     17.15650     10.16969      2.63766     17.16072     11.10389      1.77463     17.11028      8.95992      0.45076     17.76038      8.71394      5.52683     21.77939      9.56327      5.06867     21.07928      8.08620      1.11485     20.03675     11.38107      1.16876     19.19243     10.02998      1.25632     17.15583      6.81520      1.13376     15.73950      6.15886      6.50444     19.29684      4.69058      1.55717     13.62548     14.08315      2.22891     13.30790     12.52513      5.51194     15.16226      0.27500      5.95069     12.71334      3.56438      4.85865     12.30220      2.51917      1.44751     20.00062      1.77213      1.66935     19.12870      0.51186      4.09371     15.19110     11.39300      4.13405     11.56227      0.55332      5.21151     12.70768      0.32364      6.23605     17.76048      3.04017      2.05263     20.48877     13.21489      0.67101     19.86355     13.47155      1.38562     21.11195      9.46006      2.14630     21.09925      8.00992      1.31942     20.60583      3.69812      2.18731     19.21819      3.77186      4.22708     13.00141      8.46923      4.04215     14.47636      8.56434      4.23218     11.67118      6.49149      1.63970     10.07935      1.96442      4.84048     11.49783      4.92154      0.32213     15.05723      9.10387      0.37755     16.42360     12.97848      6.57770     21.87001     14.50626      6.05675     17.01078     10.37165      5.85912     18.59630     10.59825      6.16897     14.55096      6.98526      5.56023     16.44437      1.12928      0.34997     17.32371      1.80106      4.81638     22.82886     15.86923 