-1394.376300
-1394.382100
-1394.371900
-1394.382700
-1394.367500
-1394.374900
-1394.365400
-1394.373700
-1394.368600
-1394.369500
-1394.365700
-1394.368000
-1394.370400
-1394.372600
-1394.366000
-1394.375600
-1394.368400
-1394.375900
-1394.370100
-1394.373300
-1394.370600
-1394.375100
-1394.374900
-1394.375600
-1394.378400
-1394.377500
-1394.384600
-1394.382200
-1394.384500
-1394.382800
-1394.385900
-1394.383800
-1394.385700
-1394.380200
-1394.381600
-1394.381300
-1394.377500
-1394.374100
-1394.375000
-1394.375400
-1394.375900
-1394.380100
-1394.374800
-1394.380000
-1394.375900
-1394.378000
-1394.377300
-1394.377400
-1394.378900
-1394.376500
-1394.380200
-1394.371700
-1394.379100
-1394.376600
-1394.381100
-1394.377500
-1394.382300
-1394.380700
-1394.379900
-1394.378800
-1394.378600
-1394.375900
-1394.380100
-1394.378700
-1394.377100
-1394.376900
-1394.376200
-1394.378400
-1394.374800
-1394.379600
-1394.377500
-1394.381000
-1394.375000
-1394.377000
-1394.378100
-1394.376500
-1394.378500
-1394.372800
-1394.380400
-1394.373700
-1394.381800
-1394.379000
-1394.388200
-1394.384500
-1394.378000
-1394.379500
-1394.382200
-1394.386800
-1394.382000
-1394.381200
-1394.382000
-1394.378300
-1394.383000
-1394.371500
-1394.386200
-1394.374300
-1394.383400
-1394.373700
-1394.381600
-1394.380800
-1394.376900
-1394.382200
-1394.377300
-1394.385600
-1394.377900
-1394.386300
-1394.380500
-1394.388000
-1394.387500
-1394.391500
-1394.389400
-1394.384900
-1394.384500
-1394.386300
-1394.385000
-1394.382500
-1394.377100
-1394.384300
-1394.379500
-1394.380200
-1394.375200
-1394.378200
-1394.382700
-1394.378500
-1394.383800
-1394.379100
-1394.386600
-1394.379800
-1394.390300
-1394.385200
-1394.389200
-1394.387000
-1394.387700
-1394.383900
-1394.387900
-1394.387100
-1394.391400
-1394.388700
-1394.389700
-1394.388100
-1394.386100
-1394.385700
-1394.383900
-1394.388100
-1394.383700
-1394.386600
-1394.380700
-1394.385700
-1394.379300
-1394.385500
-1394.379400
-1394.383500
-1394.379100
-1394.380700
-1394.375600
-1394.378200
-1394.379400
-1394.381500
-1394.379700
-1394.382900
-1394.386000
-1394.382100
-1394.386500
-1394.379100
-1394.392600
-1394.378700
-1394.391600
-1394.379600
-1394.385700
-1394.381800
-1394.383900
-1394.384100
-1394.377500
-1394.381000
-1394.378600
-1394.380200
-1394.382100
-1394.380900
-1394.387700
-1394.382100
-1394.386800
-1394.381800
-1394.389200
-1394.383200
-1394.385500
-1394.385700
-1394.384200
-1394.384500
-1394.382000
-1394.384300
-1394.383900
-1394.382300
-1394.381700
-1394.382500
-1394.387100
-1394.381000
-1394.384400
-1394.381500
-1394.388200
-1394.384100
-1394.383500
-1394.383000
-1394.381900
-1394.382000
-1394.378000
-1394.385000
-1394.380100
-1394.380600
-1394.376800
-1394.381200
-1394.379900
-1394.378100
-1394.386300
-1394.378000
-1394.384300
-1394.380400
-1394.388000
-1394.378300
-1394.387500
-1394.383800
-1394.385500
-1394.383300
-1394.385100
-1394.384300
-1394.386900
-1394.384900
-1394.381200
-1394.383300
-1394.382500
-1394.385300
-1394.383500
-1394.383100
-1394.380700
-1394.381000
-1394.377400
-1394.374200
-1394.379900
-1394.373600
-1394.377700
-1394.372700
-1394.380100
-1394.371700
-1394.374400
-1394.369500
-1394.372900
-1394.371100
-1394.371500
-1394.372300
-1394.369000
-1394.375500
-1394.373500
-1394.372900
-1394.374000
-1394.374700
-1394.383100
-1394.377100
-1394.381400
-1394.378700
-1394.386300
-1394.381300
-1394.382700
-1394.383500
-1394.382500
-1394.386200
-1394.386700
-1394.384600
-1394.385000
-1394.382100
-1394.386400
-1394.378400
-1394.384600
-1394.376000
-1394.380400
-1394.375900
-1394.375000
-1394.375200
-1394.376200
-1394.379000
-1394.375600
-1394.378700
-1394.379700
-1394.380500
-1394.380400
-1394.379200
-1394.384700
-1394.380500
-1394.383400
-1394.379000
-1394.388300
-1394.382700
-1394.383400
-1394.382200
-1394.390400
-1394.380300
-1394.383900
-1394.378200
-1394.386300
-1394.377300
-1394.381300
-1394.377600
-1394.378000
-1394.377800
-1394.376400
-1394.377800
-1394.375100
-1394.378900
-1394.377500
-1394.376300
-1394.374500
-1394.375200
-1394.376200
-1394.375500
-1394.376900
-1394.372600
-1394.374200
-1394.374900
-1394.374300
-1394.372000
-1394.370700
-1394.369500
-1394.370900
-1394.370700
-1394.370700
-1394.369500
-1394.369100
-1394.369400
-1394.372100
-1394.369400
-1394.373500
-1394.370800
-1394.378200
-1394.375400
-1394.376300
-1394.375600
-1394.374500
-1394.373700
-1394.371900
-1394.378500
-1394.374100
-1394.367800
-1394.372900
-1394.369400
-1394.372300
-1394.366500
-1394.372300
-1394.373200
-1394.373100
-1394.369000
-1394.371000
-1394.371000
-1394.371400
-1394.374300
-1394.377900
-1394.379600
-1394.378800
-1394.378300
-1394.380200
-1394.379700
-1394.379200
-1394.376600
-1394.379000
-1394.375900
-1394.377800
-1394.375200
-1394.374400
-1394.374500
-1394.375200
-1394.372900
-1394.373600
-1394.374500
-1394.378000
-1394.377000
-1394.373300
-1394.380600
-1394.375700
-1394.381100
-1394.380500
-1394.381000
-1394.377800
-1394.378100
-1394.377800
-1394.377300
-1394.379200
-1394.380300
-1394.379800
-1394.379600
-1394.378100
-1394.379300
-1394.378100
-1394.379400
-1394.377600
-1394.375700
-1394.376700
-1394.372500
-1394.375100
-1394.369100
-1394.371700
-1394.368700
-1394.374500
-1394.373600
