    0.481246     0.153824     0.241464    -0.185403    -0.267280     0.023645     0.137311    -0.444399    -0.066859    -0.217940     0.484749    -0.077585    -0.293940     0.561079    -0.838538    -1.752544     1.259120    -0.802212    -0.180081    -0.643189    -0.185618     0.455255     0.382193    -0.192389    -0.072142     0.454996     0.099364    -0.940318     0.297614     0.313285     0.314597    -0.456898     0.024318    -0.811402     0.584473     0.154325     0.855552    -0.231984    -0.158288    -0.258305    -0.135107     0.627089    -0.577146     0.518471    -0.899671    -0.550736    -0.387497    -0.805975     0.709717    -0.068927     0.007327     0.838994    -0.394057     1.070691     0.216249     0.058512    -0.744986    -0.007425    -0.254025    -0.891100     0.168792    -0.060631    -0.261709    -0.002933    -0.468492     0.052880     0.146395     1.007138     0.622153    -0.305041    -0.620756    -0.895001     0.757025     0.279585     0.010916    -0.162368    -0.240038     0.268356    -0.061390     0.277624     0.042482    -0.117015     0.593873     0.106848     0.136041     0.176631     0.460138     0.556717    -0.077041     0.120502    -0.388821     0.796510    -0.423030    -0.537315     0.180740    -0.663094    -0.055069     0.103673     0.042442    -0.230544     0.488768    -0.675521    -0.328277     0.087286    -0.332373    -0.162996     0.632701    -0.057535     1.010478    -0.273795     0.454905     0.153275    -0.968456     0.290107    -0.425819    -0.399539     0.040830    -0.147089     0.607175     0.820983     0.462887    -0.207083     0.305993    -0.380549     0.657152     0.268763     0.512856    -0.541195     0.380644     0.995759    -1.573780     0.477057    -0.048992     0.247801     0.043923    -0.113086    -0.347837     0.649118     1.234192     0.240284     1.020524     0.277482    -0.464138     0.105942    -0.549554    -0.075503     0.619218    -0.900126     0.806890    -0.507631     0.162254    -0.736178     0.220954    -0.024330     0.818244     0.620874    -0.558530    -0.698746     0.015240     1.125833    -1.107307     0.353126    -0.325547    -0.406748     0.399255    -0.238406    -0.611744    -0.070331     0.647610    -0.223278    -0.069064     0.233250    -0.479795    -0.273408    -0.508894     1.400783    -0.604970    -0.255239    -0.723667    -1.459988    -1.242497     0.803648     0.445457    -0.427928     0.959913     0.199815    -0.091164    -0.355444    -1.394616    -0.818577     1.694304    -0.951476    -1.252461    -1.019082    -0.071461     1.532174     0.066730     0.153049    -1.348600    -0.298498     0.243650     1.437009    -0.344314    -0.438702     0.760471     0.740678     0.160203    -0.832732     0.350572     0.644600    -0.756096    -2.168490    -1.897115    -1.542946     0.768667     1.751890     0.554654     0.653204     1.068741     1.252563    -0.854821    -0.731586     0.373563    -0.132680     0.316767     0.048044    -0.869793    -0.645014     1.052920     0.104954    -0.750096    -0.072629     0.697228     0.184750     2.136045     1.488228     0.267249     1.881145    -0.811627     1.569215    -0.333246    -0.009643    -0.079801    -0.651086    -0.039988     0.544044     0.296435    -0.360941    -0.301466    -0.805456     0.451092    -0.293514     0.188358    -1.175098    -0.464731     0.027862     0.831110    -1.527529     0.863519    -0.139295    -0.093209    -0.295654     0.587813    -0.157908     0.140435    -0.246646    -1.049890     0.304437    -0.659031    -0.426532     0.269133    -0.074645     0.265327     1.670081    -0.074620    -0.883455     1.170664    -1.939115    -1.282207     0.594846    -0.108907    -0.945979     1.350259     1.502510     1.072617     0.106487    -1.169587    -0.795892    -0.273302    -0.473817    -0.514481    -0.454843     0.645772    -0.369167     0.907329     0.048470     0.512262    -0.001594    -0.058545     0.139550    -0.504814     0.233806     0.158800    -0.847166     0.335754     0.838985     0.527623    -0.109258     0.823057     0.673812     0.344670    -0.405068    -0.437379    -1.043702    -0.182049     0.252030     0.319506    -0.012609     0.624611    -0.707162     0.925740     0.182566    -0.512589     0.320156     1.328656     0.919457     0.523726    -1.280393    -0.049432    -0.454569    -0.294878    -0.111097     0.249590     0.713806     0.111928    -0.090325     0.344504     0.153316     0.725996    -1.317437     0.078422    -0.258262    -0.398858    -0.832405     0.590446    -0.517099    -0.320817    -0.000552    -0.354374    -0.198033     0.276878     0.282348    -0.266257    -0.168774    -0.247525    -0.120067    -0.098435     0.705031     2.243626     1.824367     0.826664    -1.188331    -1.358167     0.972138     0.615292    -0.226815    -0.696124    -0.086968    -0.971383     0.265388    -0.209158     0.110032    -1.411705     1.161767     0.275892     0.138753    -0.030430    -0.293344    -0.433309     0.385131    -0.426751    -0.073267     0.122877     0.255721     0.126370     0.499572     0.316683    -0.661387    -0.261830     0.452100    -0.270829     0.154601     0.050183    -0.163836    -0.553950    -0.194936     0.411482    -0.502576    -0.054882    -0.812872    -0.633415    -0.738754    -0.532711    -1.027024     0.374372     0.160544     0.133101     0.203800     0.310382    -0.211553    -0.309426    -0.087935     0.240126    -0.129365     0.456450    -0.195028     0.001877     0.272342    -0.100659     1.056676     0.026453     0.265904     0.027755     0.005919    -0.243673     0.060213    -0.297226     1.148181     0.535640     0.254352     0.883948     1.409001    -0.256198    -1.817047     0.219032    -0.235314    -0.237544     0.236805    -0.447147     0.057249    -0.163478     0.399798    -0.627346     0.035838     0.028129     0.054241     0.183207    -0.647678    -0.017830     0.006064     0.281239     0.810452     0.899579    -0.083741     0.004819    -0.504946    -0.379506    -0.229886    -0.096870    -0.795456     0.397397    -0.419941     0.365576     1.538794     0.414744    -1.773038     0.086062     0.873902    -0.285019     0.261774     0.976008    -1.013320    -1.289253    -0.972595    -0.222709     0.033017    -0.183952     0.161160     0.488567    -0.847075    -0.771485     1.057164     1.002618    -0.102628     0.845754     0.621406     0.117935    -0.425815     0.079246     0.034101     0.449858     0.290939     0.450636    -0.904512     0.404006     0.499893    -0.759294    -0.363595     0.223816    -0.386325     0.102553     0.217235     0.081127    -0.226470    -0.374773    -0.021610     1.422121     0.153224    -0.188276    -0.183104     0.588719    -0.097367     0.056436    -1.123147     2.282513    -1.016404    -0.426222    -1.535689    -0.782486     0.465762     0.026499     0.324801     0.647237     0.228456     0.098418    -0.491616     0.388701     0.028970    -0.929285    -0.188422    -1.226180 
    0.476243     0.225135     0.197274    -0.138727    -0.179836     0.162741     0.128461    -0.531624    -0.018306    -0.213128     0.418150    -0.014882    -0.298146     0.521031    -0.819626    -1.799335     1.341277    -0.800904    -0.132067    -0.594264    -0.116966     0.462896     0.424377    -0.275030     0.045005     0.290309     0.147575    -0.816741     0.265063     0.349220     0.306047    -0.456739    -0.030671    -0.780729     0.656563     0.098412     0.816638    -0.099371    -0.177046    -0.394205    -0.040080     0.481634    -0.551393     0.508756    -0.873742    -0.569997    -0.404192    -0.791134     0.765164    -0.177673     0.075179     0.704013    -0.408789     1.017769     0.254213    -0.014154    -1.045719     0.014573    -0.452786    -0.934161     0.154199    -0.061022    -0.318813    -0.034822    -0.561203     0.095850     0.198581     1.007922     0.690954    -0.150992    -0.324296    -0.757369     0.784028     0.299338    -0.021193    -0.201517    -0.212019     0.230065    -0.072508     0.234553     0.133619     0.011188     0.452255     0.136756     0.294462     0.253989     0.401215     0.516940    -0.025512     0.101133    -0.416825     0.788679    -0.486509    -0.459017     0.164793    -0.617339    -0.044781     0.184239    -0.020040    -0.242573     0.525595    -0.769796    -0.312193     0.099671    -0.358425    -0.183506     0.621524    -0.063991     0.945445    -0.332451     0.522714     0.221394    -1.006704     0.364587    -0.325955    -0.231767     0.198848    -0.155465     0.659328     1.011599     0.378391    -0.158835     0.341877    -0.242119     0.485650     0.144294     0.442858    -0.495231     0.437846     1.131533    -1.719560     0.545156     0.017565     0.114949     0.067652    -0.077099    -0.512838     0.707383     1.007333     0.332766     0.849159     0.213960    -0.283117     0.210944    -0.590464    -0.065955     0.929582    -0.846871     0.707609    -0.472056    -0.156072    -0.634330     0.169864     0.251290     0.732072     0.398141    -0.599052    -0.654199     0.090845     1.190368    -1.098531     0.497880    -0.399044    -0.349549     0.395828    -0.288185    -0.616164    -0.047147     0.568972    -0.303015    -0.126322     0.217533    -0.556393    -0.235660    -0.507352     1.249180    -0.711738    -0.283073    -0.367891    -1.842846    -0.860066     0.209182     0.310615     0.074291     0.019034    -0.621320    -0.465567     0.227035    -1.529625    -0.725753    -0.164288    -0.471392     0.868793    -0.578241     0.645848     2.142373    -0.539345    -0.934704    -1.173300    -1.147171     0.678562     1.287213    -0.389313    -0.101193     0.187161     0.134344    -0.030409    -1.635793    -0.112720     1.041394     1.185818     0.003958     0.034286     1.993923     0.185634    -0.002294    -0.988721    -0.357353    -0.573330    -1.205023     0.706007     0.093149     0.252677    -0.253070     0.347964    -0.916355    -0.475874    -1.371845     1.117156     0.868804    -0.982938    -0.115100     0.483290     0.159816     0.976581     0.415162     1.041363     0.840960    -1.366202     0.233815     0.429115    -0.361275    -0.993859    -0.019017    -1.088778     1.529972     0.182193    -0.452259     0.768252     1.232390    -1.255994     0.023331    -0.513850     0.621780     0.245634    -0.122834     0.299919     0.348769    -0.654338     0.265539    -0.337821    -0.389443     0.577368     1.038065     0.679710    -0.322935    -0.670839     0.261346    -0.064027     1.489655     0.380796    -0.766589    -0.422024    -0.528046     0.754670     0.347143     0.157072    -1.869791    -0.910939    -0.021442     0.102460    -0.498941     0.478534     0.149777     0.063167    -1.039907     0.988171     0.752117    -0.527531    -0.113619    -0.433826    -0.231951     0.212449    -0.394132    -0.266956    -0.250673    -0.770173     0.038978     1.069002     0.310381     0.776603    -0.874654     0.627864     0.472966    -0.084922    -0.979134     0.768383    -0.560316     1.312047    -0.100906     0.184222     0.021669    -0.109190     0.095495     0.081410     0.443483    -0.179537     0.125525     0.137519     0.035210     0.206835     0.611126     0.551245     0.459782     0.022582    -0.082188    -0.027240    -1.139298    -0.114763    -0.517441    -1.064578     0.601074     1.445409     0.983204     0.350535    -0.257093     0.292549     0.077537     0.335559    -1.165221     0.267989    -0.142248    -0.482795    -0.465840     0.363538    -0.175117    -0.185704     0.621833     0.703585    -0.015050    -0.249527     0.323883     0.094720    -0.124977    -0.753046     0.458467     0.078431    -0.723927    -0.572040    -0.221266    -0.695807     0.466092     0.475940    -1.220790    -0.480897    -0.421853     1.130165    -0.054358     0.850704     0.582955    -0.458125     0.138553     0.780849    -0.159876    -0.568618     0.022994    -0.053971    -0.342753    -0.267637     0.383670    -0.348103     1.328485    -0.562043     0.807495    -0.324045     0.911276     0.449888    -0.527287    -0.691698     0.553639    -0.444168    -0.193520     0.221078    -0.179488    -0.602004    -0.290876     0.460596    -0.220978     0.068779     0.026425    -0.245135    -0.126441    -0.287860    -0.204389    -0.972053    -0.179094     0.065817     0.375052    -0.074692     0.221908     0.499865    -0.573114     1.218501    -1.109790     0.308698    -0.107423    -0.102128     0.322540    -0.139001    -0.292915     0.087068     0.441487     0.217070     0.021962    -0.063221     0.355436     0.382685    -0.855962    -0.571272     0.331679    -0.323694    -0.387464    -0.132096    -0.041860     0.088108    -0.014030     0.482067     0.046311    -0.068002    -0.384373    -0.433762     0.278006    -0.378520    -0.700023    -0.273912     0.158166     0.029935     0.597714     0.381558     0.552296    -0.948272    -0.335507    -1.562110    -0.066809     0.388905     0.280270    -0.501322     0.256909    -0.248704    -0.006607    -0.041833    -0.061156     0.553328     1.629348     0.517158    -0.873107     0.043932     0.294822    -0.575299     0.361178     1.125311     1.067817     0.230673    -0.412488    -1.473759    -0.147738     0.309062    -0.114632     0.319104    -0.032900     0.499625    -1.125830    -1.155891     0.073659     0.213756     0.405518     0.229047    -0.283494     0.235255    -0.001689     0.355365     0.689645     0.260757    -0.317042     0.182243     0.129396    -0.176912     0.148179     0.041275     0.635192    -0.070966     0.208768     0.229324    -0.675940    -0.223253    -0.071210     1.362736    -0.619810     0.425291    -0.345310     0.225353     0.421705    -0.235676    -0.599953     2.122864    -0.433822     0.101373    -0.931045     0.001978    -1.557719     0.565586    -0.174771     0.035390     0.079754    -0.116908     0.490409     0.148675    -0.445064    -0.120244     0.690362    -0.424691 
    0.470274     0.223284     0.109961    -0.081860    -0.098306     0.282571     0.128531    -0.594283     0.029534    -0.198738     0.353553     0.042337    -0.295319     0.465237    -0.795084    -1.811747     1.387352    -0.787883    -0.081361    -0.541715    -0.040806     0.464238     0.451289    -0.342991     0.158941     0.122089     0.170823    -0.668881     0.230815     0.366573     0.297319    -0.453291    -0.078682    -0.754851     0.710876     0.046686     0.771331     0.030927    -0.193977    -0.512387     0.045475     0.329175    -0.523662     0.497936    -0.849450    -0.587228    -0.415057    -0.774551     0.805260    -0.292827     0.138668     0.526247    -0.420215     0.935766     0.275242    -0.073781    -1.229524     0.021049    -0.647969    -0.941874     0.140773    -0.061102    -0.377085    -0.094842    -0.651686     0.135598     0.234152     0.965008     0.691313    -0.148755    -0.137218    -0.626225     0.811362     0.316703    -0.054053    -0.243604    -0.195448     0.197508    -0.074578     0.182311     0.218992     0.136525     0.298337     0.154855     0.448373     0.325755     0.313844     0.476883     0.040183     0.074246    -0.449792     0.760056    -0.541648    -0.381348     0.143162    -0.570870    -0.037073     0.250030    -0.083879    -0.256736     0.549641    -0.845715    -0.290681     0.108112    -0.384552    -0.201086     0.608133    -0.073304     0.852201    -0.372082     0.561171     0.288328    -1.016621     0.412008    -0.296116    -0.170759     0.373336    -0.173119     0.609381     1.062216     0.224684    -0.151330     0.439988    -0.100652     0.329991     0.033456     0.344625    -0.436307     0.459605     1.235700    -1.804594     0.580512     0.087438    -0.007650     0.091599    -0.038883    -0.657704     0.747104     0.806593     0.417101     0.672256     0.137155    -0.085342     0.321172    -0.519596     0.215781     1.141637    -0.696171     0.649414    -0.404436    -0.370901    -0.532197     0.189071     0.397247     0.699102     0.207219    -0.626123    -0.553782     0.157545     1.192583    -1.078758     0.545765    -0.463982    -0.278019     0.388200    -0.333447    -0.605470    -0.034728     0.422387    -0.380351    -0.202080     0.197754    -0.633474    -0.188799    -0.440738     1.084612    -0.726023    -0.341698    -0.088165    -1.918572    -0.168028    -0.205498    -1.180623     0.530998    -0.766809    -1.035094    -0.051406     0.339774     1.771449     0.266156    -0.490486     0.915717     1.440549     0.835453     1.045672    -2.571025     0.652625     0.553661     0.801163    -0.107138    -0.180684    -1.152107     0.084637     0.312047    -0.903168    -1.089209     0.219569    -0.992967    -0.467990     0.139073     0.866952     1.575171     0.855561     2.886280    -0.423923    -1.109566    -0.680769    -0.115929    -0.511836    -1.928007     0.895423     1.024969    -0.032726    -0.198012    -0.210128     1.145306    -1.188101    -0.374554    -0.341648     0.980279     0.139968    -0.279274    -0.656553    -0.705596    -1.176313    -0.550851     0.311790    -2.723187     1.135883    -3.026077     0.229141    -0.133494    -0.551007    -0.127572     0.014681     0.328150     0.355429    -0.038991     1.255530    -0.613891     0.376926    -0.359300    -0.384296     0.299516     0.397463    -0.294647    -0.653933     1.106461     0.199109    -0.352450    -0.254532    -0.189635     0.450661     0.906907     0.773021    -0.045319    -0.091558     0.408034    -0.442261     0.237744     0.253433    -0.730617    -0.790108    -1.287415     1.112516    -0.130751    -1.434876     1.035866     1.713506     0.136925     1.029196     1.643946    -1.350299    -0.354435     0.644729    -0.941476     1.791118     0.119183    -0.373647     0.606397     0.501664     0.203564    -0.142074     0.763806    -0.097497    -1.932471    -0.081295     0.181680    -0.272425     0.126739    -0.039560    -0.080081     0.452692     0.463783    -0.035028    -0.904477    -0.085822     0.856995    -0.205371    -0.760315     0.053961     0.331110     0.169824     1.001102     0.168499    -0.161041     0.256810    -0.258001    -0.533765     0.834570    -0.780568     0.329415     0.030974    -0.028675    -1.313101    -1.272433    -0.658249     2.024244    -0.036284     0.420376     0.470318    -0.673740    -0.925494    -0.820918    -0.258175     0.434987     0.035767    -0.187374    -0.801197     1.377411     0.080124     0.595322     0.004826     0.301704     0.287221     0.217433     0.231365     0.524714     0.351319     0.092107     0.262983     0.269405     0.342356    -0.024970    -0.041107    -0.043825     0.181800    -1.081325    -1.584871    -1.041423    -1.522209     0.687519     1.029325    -1.470441    -0.198484    -0.041996     0.770516     0.031964     0.641973     0.500837     0.082446    -0.376040     1.677995    -0.884667    -0.894688     0.123364    -0.001399    -0.058449    -0.054541     0.154638    -0.003470    -0.330564     0.577097     0.683850    -0.795787     0.469259    -0.433883     0.883909    -0.400583    -0.559974    -0.363670    -0.609765     0.290020     0.209286    -0.337925     0.460231     0.245852     0.633026     0.135036     1.790005     0.345915     1.116861    -0.000826     0.276042    -1.380660    -0.284952     0.087373     0.385590     0.232889    -0.041217     0.122027     0.372348    -0.037419    -0.069888    -0.532857     0.052091    -0.049531     0.285845    -0.204471    -0.776647    -0.028739     0.064997     0.162274    -0.048493     0.029580     0.126924     0.299118    -0.653942    -0.514660     0.281448    -0.882956    -1.018725    -0.007455     1.529068    -0.102916    -0.041862     0.203022     0.055606     0.092197    -0.432884    -0.470863     0.151106    -0.301376    -0.521016    -0.260685    -0.157888    -0.246902     0.410314     0.407061     0.688319    -0.956880    -0.059642    -0.469826     0.007286     0.522801     0.744762    -0.360590     0.239717    -0.321335     0.704555    -0.376913     0.231154    -0.486587    -1.825578    -0.475304     1.908340     0.632967    -1.352258    -0.673918    -0.348041    -0.909673     1.511262     0.955995     0.018977    -0.098076    -0.317158    -0.648906    -0.449171    -0.251671     1.022620     0.758707    -1.383226    -1.542535     0.422645    -1.116417    -0.189997    -0.238403     0.259002    -0.115617    -0.037253    -0.582267     0.353684    -0.136479     1.044055    -0.537185    -0.497270     0.578075     0.708340     0.151072     0.380552     0.108044     0.159448     0.045338     0.149365    -0.034744    -0.646921    -1.611423     0.140604     0.240317    -0.186312     0.064227    -0.032591    -0.159492     2.143801    -2.779645     1.522846     0.905212     1.462730     1.423706     0.193131     0.253454     0.297218    -0.430081     0.040666    -0.298153     0.525578     0.130353    -0.406536     0.481284     0.993874     0.385321 
    0.464197     0.208706     0.040971    -0.080257     0.084134     0.380416     0.104007    -0.648295     0.071360    -0.165671     0.282113     0.107599    -0.286246     0.389908    -0.768850    -1.783419     1.390990    -0.766602    -0.031167    -0.483452     0.040402     0.453535     0.469150    -0.396741     0.259319    -0.058912     0.191020    -0.507325     0.199982     0.400759     0.282874    -0.465253    -0.119289    -0.734065     0.741640     0.016569     0.727969     0.155903    -0.214882    -0.605952     0.124323     0.181209    -0.494767     0.489883    -0.825746    -0.601161    -0.424300    -0.762663     0.866102    -0.405174     0.218648     0.234518    -0.424491     0.824305     0.272700    -0.103582    -1.268933    -0.035380    -0.580542    -0.905135     0.134285    -0.029621    -0.429617    -0.177751    -0.706236     0.182860     0.241160     0.888321     0.634109    -0.257469    -0.075453    -0.510538     0.840304     0.350822    -0.080907    -0.282230    -0.176219     0.177871    -0.073795     0.134241     0.302749     0.252888     0.155302     0.168824     0.613766     0.415066     0.210014     0.427448     0.117215     0.034377    -0.486666     0.741529    -0.571900    -0.301996     0.126940    -0.525354    -0.034230     0.315647    -0.130499    -0.269699     0.574295    -0.882515    -0.263849     0.123654    -0.404728    -0.218085     0.599778    -0.076720     0.715386    -0.390915     0.583759     0.326213    -0.990785     0.452312    -0.333672    -0.169595     0.497335    -0.187937     0.582363     1.054361     0.172577     0.001182     0.478218    -0.014097     0.155139    -0.151265     0.211052    -0.357244     0.479685     1.299488    -1.822075     0.595964     0.158306    -0.126109     0.124680    -0.002838    -0.784066     0.783240     0.605987     0.506067     0.500669     0.071736     0.089650     0.412339    -0.393302     0.753425     1.080668    -0.449177     0.424648    -0.499897    -0.300174    -0.625853     0.320639     0.343977     0.604206     0.093525    -0.611318    -0.450958     0.284348     1.232594    -1.088307     0.675889    -0.520221    -0.220406     0.364434    -0.374060    -0.610947    -0.045335     0.306792    -0.435004    -0.252403     0.167334    -0.722077    -0.133626    -0.354578     0.938509    -0.694346    -0.357005     0.132827    -1.863731    -0.568270     0.162616    -1.050913     0.544708     0.235361    -0.180927     0.090224     0.037673     0.761648     0.202063     1.289662     0.732807    -0.986841    -0.696377     0.107572    -0.826017     0.572770     0.993030     0.999543     0.302256    -0.251392    -0.652327    -0.175999     0.115481    -1.313180    -1.946784     1.200648    -0.088520    -0.095634    -0.353303    -0.954920     0.086993    -0.893119     0.271812    -1.022780    -1.023176     0.752184     0.669644     1.177462     0.440313    -1.498958    -0.097545    -0.314215    -0.097707    -0.497432     1.441606    -1.069712     0.052740    -0.196283     0.431843    -0.051215    -0.058974    -0.464803    -0.256459    -0.155683    -0.201963    -0.037898    -0.423063     0.431469    -0.811749    -0.504457     0.081757     0.143720    -1.132094     1.311884    -0.661766     0.580739     0.403366     0.002749    -1.545473     1.386929    -0.502926     0.263095    -1.557046    -0.079916    -0.249017     0.138788    -0.351080     1.150585    -0.703378     0.136007     0.458745     0.064253    -0.467841     0.304931    -0.133987    -0.166171     1.010879    -0.690135    -1.371837    -0.088145    -0.128783    -0.131486     0.612448     0.241883    -1.776435     0.400520     1.440020     0.572992     1.159798     1.055662     1.300365    -0.290775     1.355252     1.484137     0.332739    -0.416848    -1.893385    -0.158199    -0.296329     0.206253     0.100944     1.024585     0.308715     0.473031    -1.495591     0.477897     0.107607    -0.952160    -0.010460    -0.853655     0.894482     0.049838    -0.660017     0.487717     0.971692    -0.562443     0.862089    -0.840065    -0.226834     0.115546    -0.090545    -0.275954    -0.187348    -0.174085    -0.516363     0.318821    -0.409054    -0.050208    -0.385038    -0.017159    -0.057908    -0.574788    -0.675128     0.242510     0.707422     0.122472     0.000510    -0.026568    -0.039721     0.700153    -0.561418    -0.889111    -0.818336     0.007769     0.414133     0.088419    -0.101639    -0.425731     0.687860     0.184207     0.404402     0.121159     0.638172     0.102757     0.373868     0.645269    -0.198649    -0.323292     0.099570     0.878195     0.071721    -0.052250    -0.340004     0.757144    -0.695231     0.171296     0.042100     0.516780     0.726812    -0.980174    -0.345174     0.021256     0.716105     1.438932     0.749641    -0.905264     0.200063    -1.274855     0.371917     0.352112    -0.463772    -0.509774     1.203187     0.430570     0.004005    -0.027281     0.117674     0.438205     0.023025     0.144341    -1.063258     0.662813     0.330663    -0.549247     0.120005    -0.535046     0.667188    -0.221050    -0.315660    -0.245063    -0.308912     0.252790     0.088053    -0.086881     0.286271     0.155862     0.247248    -0.177930     0.592545     0.315738     0.073666     0.060992    -0.216913     0.344469     0.235408     0.313598     0.149887     0.474821    -0.480210    -0.298353     1.181820    -1.282937     1.099793    -0.316756     0.038243    -0.175209     0.160355    -0.287725     0.551204    -0.152835    -0.357146     0.032117    -0.050937     0.026351    -0.197605    -0.331683     1.248102     0.255005     0.140245    -0.124212     0.180941    -0.085104     0.031851     0.056879    -0.269514    -0.489170     0.093394    -0.061461    -0.009789    -0.194845    -0.084737    -0.300335     0.405948    -0.133467    -0.347846    -0.358425    -0.872225     0.154467     0.241483    -0.424836     0.467956     1.376304     0.198353     0.377250     0.065429    -0.077029    -0.127022    -0.197856    -0.085900     0.149096    -0.073265    -0.170196    -1.363329    -0.451351    -0.122968    -0.156858    -0.134386    -0.415942    -0.375831    -0.974726    -0.587067    -1.088500    -0.631767     0.970968     0.063410    -0.794737    -0.203774    -0.043078     0.582857    -0.583778     0.774922     0.787600     0.232874    -0.190383     0.183216    -0.212025     0.316685    -0.285866    -0.039767    -0.718665     0.195117     0.033827     0.095919     0.095415    -0.047194     0.241789     0.158098     0.340638    -0.576286     0.318685     0.010814    -0.005744     0.625432     0.064157    -0.389286    -0.497653     0.994949    -0.239680    -0.014168    -0.150874    -0.681271    -0.064860     0.564335    -0.067599     0.555860     0.209320    -0.578841     0.149451     1.170746    -0.114631     0.580991    -0.271292     0.265744    -0.041726    -0.550623     0.262123     0.082114     0.337157     0.439252     0.484606 