    5.426270    18.871550     0.323890     2.268480    22.530360    14.665690     0.062910     5.327230    15.256870     3.472610     4.202980    15.495490     5.559730     4.175070     0.510000     2.484530     3.141730     1.076880     0.154790     6.898590     2.095450     3.448460     5.932870     2.365180     5.115620     9.106220     3.779000     1.887780     8.780590     3.959500     5.814510     0.559800     2.072270     2.261570    20.643360     2.353060     0.077090     3.336370     3.525140     3.737970     2.413750     3.946960     5.434280     5.820370     5.020370     1.989990     5.468530     5.269380     0.018270     8.458870     6.662550     3.375430     7.988070     6.896790     4.781870    10.495570     8.319530     1.509840    11.341830     7.531260     3.130910     3.063810     7.703920     6.635560     3.212110     7.534100     1.434090    21.746460     6.257210     4.546390    21.079890     6.718950     1.515600     5.785020     8.973460     5.012610     5.915060     8.816030     3.217770     8.596700    10.185530     0.091610     8.490730    10.317080     1.531920    11.175660    11.726390     4.998350    11.282650    11.508790     1.567870     2.712350    10.710940     4.886620     2.965360    10.499560     3.524210     5.558070    11.824180     6.796160     5.338700    12.036420     1.823440     8.133730    13.178910     5.001680     8.163370    13.052610     3.392700    10.638530    14.589430     6.682830    10.510650    14.829860     1.867170    13.890470    15.320590     5.154460    13.029190    16.099180     5.643340     3.629300    15.693100     3.247930    19.502660     0.509740     0.047520     2.626860     1.394380     3.585400     1.194390     1.767550     5.606720     5.213690     2.685340     2.365540     4.024460     3.342130     6.585710     7.718270     4.399900     3.452770     7.002310     4.541110     4.923840     9.768880     6.380890     2.005660     9.486680     6.089720     1.326780    22.573080     8.170180     5.031060     1.854510     8.174340     3.435170     4.606220     9.702040     0.089920     4.107500     9.820380     1.476680     6.783500    11.182110     4.915340     7.241370    10.803810     3.492360     9.892450    12.367610     0.029640     9.466220    12.462680     1.473030    11.845070    14.041180     5.053490    12.402190    14.059840     3.412930    10.656700     5.478980     2.991680    14.457770    10.966330     6.780390    18.699250     4.983450     6.464710    17.961530    13.533590     2.009930    18.660660     9.448530     0.310300    14.999630    11.730150     6.558940    24.139220    13.950150     0.867030    17.143030    16.033300     6.773050    12.922140    13.340870     3.622620    19.572450    15.426980     3.055520    12.502290     1.101210     4.339550    14.558550     4.520270     0.220200    12.397690     3.559790     0.350750    15.008060     4.689940     1.817020    17.147090     3.749340     0.299510    15.886800     0.702960     4.227760    16.419030    13.892670     0.665110    14.944530     7.556620     5.943690    11.291000     5.569320     5.706220    21.001490    11.210670     0.058660    20.651310    13.865920     2.660480    18.692570    12.666360     6.344530    21.900550     8.976280     4.950560    19.134230     9.126740     6.756530    17.567170    10.908530     6.632380    13.580860     9.631420     3.394130    15.048790     7.080560     4.111670    13.903220    13.055060     5.060690    15.830290     2.130730     2.982500    12.374530     3.792320     2.626930    17.643650     1.501890     3.957880    17.016430    10.596530     5.719340    12.226850     1.002860     5.420700    16.776250     7.891600     3.274110    21.151150    11.961000     2.269760    21.188730     9.339280     4.460950    17.469060     5.547830     4.132080    13.123350     8.999720     2.107460    18.645810     6.757370     5.677450    19.552050     9.616960     3.890480    15.861290     7.290440     4.915360    17.277990    10.699410     2.526550    19.467480     6.726880     2.041190    14.365190    11.092290     3.328610    13.835870    10.294560     5.859540    18.380240     5.123040     6.593400    18.920760    13.745370     0.147980    17.459940    14.234150     1.947290    18.416160     8.481520     6.808940    15.947210    11.684260     6.682480    14.670390    10.907730     6.565040     3.511270    13.142860     0.624910    14.461060     0.225570     0.091490    12.979670     0.301720     0.572210    14.347150    15.276200     0.065570    13.676550    12.734400     4.476840    19.661670    15.847090     3.467100    20.447260    15.093520     2.950730    11.660440     0.611900     2.302260    13.025050     0.731900     5.292770    14.518840     4.785730     3.910870    14.828740     5.367100     6.711880    12.097560     2.687320     0.377290    14.843940     5.654650     0.365710    14.051280     4.345170     1.225580    16.382500     4.051120     1.334080    17.839440     4.076380     0.192930    16.729520     0.251200     6.485580    15.967640     1.467130     3.792790    16.534960    14.753850     4.945520    17.091130    13.871290     0.452270    14.377050     8.354890     0.209850    15.772770     7.808180     6.586910    11.598640     6.231510     6.273630    11.657530     4.668000     6.204730    21.152430    14.461080     0.863100    21.137960    13.970080     3.022290    18.037690    12.083170     3.268730    18.553560    13.445180     6.211320    21.628930     9.943810     5.757870    20.623080     7.144520     0.122140    17.839960    11.849830     0.675330    17.907230    10.347990     0.173500    12.734650     9.628820     5.605490    13.367070     9.497180     2.416460    15.104820     7.134380     3.862970    14.741150    13.610670     3.602250    14.092410    12.134790     4.599920    16.673480     2.038300     3.560780    13.166880     4.091540     3.050600    12.329450     2.704830     2.133210    17.474380     2.464630     2.329090    16.912510     0.939360     3.973170    16.083320    10.722870     5.717570    11.363930     0.514270     4.846450    12.595350     0.908650     5.413250    17.159540     6.988010     3.130980    21.771630    12.667780     3.066990    20.191220    12.275100     2.415210    21.583940    10.237300     2.152820    20.134790     9.417670     4.347950    16.823320     4.814810     3.560740    17.791600     5.807710     4.179720    12.150870     8.620840     3.924220    13.690400     8.217180     2.518820    12.236920     7.145730     1.185800    12.217750     3.599230     3.307960    11.351430     4.816780     6.796570    19.672270     4.867620     2.896190    18.245140     9.724580     0.661600    23.919270    14.098810     6.216570    21.091100    12.060050     4.684860    21.050910    11.409210     4.610610    19.880640     8.514670     4.796200    15.516640     3.035640     5.299200    17.568900     8.478580     1.296370    18.772480     6.185200 
    5.319250    19.099750     0.528850     2.180600    22.144240    14.913600     6.553850     5.520200    14.976060     3.340970     4.062260    15.642090     5.071430     4.358490     0.618120     2.250890     3.100750     1.091660     0.208180     6.912030     2.204830     3.289470     5.916640     2.415370     5.576530     9.998680     3.605210     2.168820     8.687350     4.009360     5.786790     0.806100     1.974000     2.106480    20.830330     2.486560     6.728780     3.540390     3.347490     3.557470     2.358050     3.973240     5.696990     6.255250     5.115140     2.071030     5.193900     5.489010     0.283550     8.889310     6.486210     3.788560     8.286640     6.811960     5.388360    10.876030     8.324110     1.728220    11.850340     7.336230     3.131630     2.779530     7.676140     6.708810     3.110330     7.509490     1.509600    21.418560     6.186300     4.616860    20.764910     6.825590     1.598790     5.667560     9.031240     4.986050     5.681890     9.006740     3.266360     8.595850    10.319900     0.009890     8.313470    10.378960     1.662360    10.879900    11.834580     5.141930    11.203540    11.802380     1.613720     2.662750    10.801260     4.912190     2.381570    10.301750     3.396070     5.441220    11.863760     6.613990     5.156270    11.769490     1.395350     7.686740    13.297950     4.808760     7.868010    13.192630     3.370620    10.631130    14.716490     6.634030    10.284610    14.806370     1.984990    13.505890    15.507360     5.066110     9.381370     0.124920     5.535900     3.698350    15.862600     2.981250    19.530050     0.616400     6.640930     2.804330     1.092680     3.428280     1.287950     1.781690     5.527410     5.498360     2.798950     2.229010     3.959500     3.342220     6.685800     8.216360     4.148470     3.335720     6.795230     4.737020     5.327040    10.384110     6.246230     2.360180     9.707700     6.181800     1.259030    22.374600     8.103940     5.064530    22.717280     8.092010     3.479450     4.228230     9.780670     0.150770     3.960540     9.797050     1.466080     6.611820    11.249060     4.749480     7.172920    11.002710     3.603400     9.767520    12.455260     6.789640     9.150920    12.411230     1.352600    11.755840    14.091300     5.109420    12.214800    14.251530     3.600250    10.926940     5.397660     3.022620    14.298320    11.109610     6.564220    19.424360     4.422470     0.240250    17.992310    13.814830     1.518700    18.839120     9.769160     0.087000    14.419580    11.339510     5.693140    24.085900    13.835930     1.680480    16.968300    16.057130     0.023160    12.975080    13.492260     4.635450    19.763450    14.908960     3.997290    12.308080     0.681450     4.186090    14.853920     3.955680     0.627220    12.763580     3.528640     0.106830    15.248060     4.111560     1.514980    17.468000     3.950460     1.088640    15.883880     0.684400     5.558690    15.962630    14.386210     0.279690    15.152750     6.682770     5.939590    12.360920     5.636540     5.610850    20.252660    10.957710     6.439480    20.893950    13.384210     2.775860    18.529030    13.345060     6.545600    21.541860     8.830570     4.629840    18.471780     9.352730     6.585830    17.165830    11.092160     6.174120    13.614800     9.024920     2.930660    15.551780     6.481690     4.300060    13.961550    13.368340     5.288390    16.096460     1.510100     3.211370    12.571360     3.317230     2.801820    17.751460     1.799930     3.063840    17.098880    11.131280     6.565340    11.711780     1.222780     5.855240    17.360570     7.270250     3.226120    20.950190    12.058290     2.444710    21.222180     9.331830     3.608860    17.840770     5.711130     3.646560    14.285170     8.636900     1.414920    18.364070     7.053560     5.065380    19.101900     9.928620     3.125140    16.522230     6.440190     3.923660    17.177900    10.735660     1.327380    19.244620     6.765960     2.079850    14.275260    11.278630     3.306710    14.206520    10.158880     6.025130    19.316090     5.183940     6.727440    18.896100    13.875130     1.219350    17.960280    13.876580     1.673990    18.590270     8.829270     6.772710    15.377940    11.429300     6.521240    14.124090    10.471650     5.579680    23.206900    13.431090     1.399410    14.262950     0.198690     1.016420    12.761440     0.353260     1.179180    14.325080    14.853360     6.641060    13.542860    12.645740     4.916550    19.563450    15.818750     3.842380    20.288130    15.017150     3.631390    11.414480     0.440070     3.083580    12.893950     0.484070     5.146830    15.033110     4.176750     3.661380    15.204900     4.693700     0.136360    12.322830     2.752690     0.196070    15.320180     5.126410     0.376010    14.333470     3.779080     1.068870    16.595190     3.839920     0.842620    18.184690     4.143210     0.948120    16.694980     0.117540     0.188450    15.808080     1.120490     4.961670    16.257910    15.103420     5.995380    16.797650    14.045630     0.167980    14.459330     7.349230     6.450040    15.876570     6.953030     6.569380    12.465400     6.385200     6.557860    12.388510     4.847450     5.606050    20.656340    13.945400     0.179100    21.660940    13.734410     2.876570    17.891110    12.605000     3.394490    18.390750    14.112170     6.337040    21.075030     9.661990     5.907300    20.429360     6.833810     6.589910    17.617000    11.940460     0.300510    17.726980    10.518900     6.089370    12.620270     9.125650     5.227230    13.865270     8.861390     1.959550    15.519650     6.571550     4.710320    14.761960    13.758460     3.797490    14.074360    12.473900     5.374960    17.051130     1.439860     3.483380    13.538910     3.507240     3.339190    12.282310     2.405180     2.350320    17.812930     2.703790     2.287740    17.002780     1.473560     2.896030    16.162650    11.217420     6.722600    10.832780     0.931110     5.677670    12.030280     0.956520     5.033280    17.466710     6.698410     3.041840    21.610890    12.708330     2.949040    20.103070    12.425350     2.489920    21.534710    10.320370     2.165620    20.268240     9.492770     2.925930    17.782410     4.960100     3.404200    18.649490     6.211030     3.394100    13.443900     8.341570     3.476580    14.838920     7.811740     2.770700    12.580810     6.827180     1.574030    12.668090     3.320130     3.569770    11.672010     4.729470     5.957340    19.544900     3.676640     2.075040    18.177140    10.237720     6.093920     3.567000    13.255570     6.072330    20.245070    11.835010     4.827980    20.791220    11.260540     4.291320    18.988540     8.615500     4.690620    16.023840     2.274280     5.468210    17.532040     8.176010     0.516770    17.990740     7.129450 
    5.697290    19.044250     0.621830     2.477970    22.297000    15.182490     0.603630     5.293770    15.358060     3.793940     4.316040    15.751220     5.769710     4.291810     0.766360     2.711010     3.500730     1.167350     0.704950     7.002470     2.080910     3.986200     6.182800     2.523540     5.901440     9.643190     3.710140     2.642420     8.954330     3.920810     6.079510     1.023280     2.156420     2.439860    20.831790     2.390980     0.627520     3.636470     3.674220     3.961100     2.506980     4.090260     6.081700     6.208270     5.067000     2.661400     5.679610     5.439930     0.694980     8.975270     6.614310     4.162550     8.570780     6.915700     5.814580    10.950080     8.376380     2.163120    11.472020     7.875190     2.628120     2.844810     7.613790     6.010180     3.333260     7.609540     0.833820    21.721010     5.995590     3.914010    20.764250     6.811930     0.882680     5.496910     8.985240     4.272720     5.736430     8.929090     2.422510     8.386440    10.271310     6.060790     8.314040    10.458060     0.664720    10.951630    11.831190     4.380140    11.231660    11.699120     1.000260     2.410540    10.655700     4.289840     2.673510    10.464000     2.630630     5.216840    11.863630     5.904600     5.181290    12.136080     0.882530     7.731880    13.353120     4.066800     8.059020    13.184780     2.680210    10.590260    14.574080     6.083490    10.234910    14.821960     1.419090    13.550990    15.698020     4.406000     8.915840     0.397940     5.998200     3.763120    16.022940     3.369540    19.385480     0.927540     0.507280     2.869530     1.287690     3.781300     1.448070     1.834140     6.214960     5.501440     2.831660     2.851170     4.247790     3.416950     0.508810     8.179660     4.297500     4.041810     7.170350     4.660900     5.767530    10.538020     6.257920     2.670870     9.976720     6.101810     0.753990    22.500460     7.949590     4.578370    22.859940     8.081060     2.720560     4.200990     9.644320     6.263530     3.857380    10.050160     0.656020     6.515580    11.140630     4.015130     6.927110    10.959240     2.798250     9.834450    12.290610     6.093670     9.103120    12.649870     0.762290    11.784020    14.072910     4.464010    12.141100    14.380350     4.077350    11.277980     5.515080     2.650240    14.349840    11.091270     6.776020    18.557120     5.046770     0.272110    18.615470    12.646580     3.604230    18.159310     8.727930     6.231430    14.334720    11.559660     6.670060    24.044900    14.193890     0.107030    18.208820    15.393240     6.041780    13.034040    13.743890     4.375490    19.754600    14.495990     2.581780    17.096510    15.816510     4.239210    13.550730     4.569890     0.784230    12.598620     3.208220     1.371090    15.079310     4.114710     3.658820    16.392730     3.990170     0.606920    16.515490     1.056030     5.122840    16.105820    15.312910     2.245900    15.153490     6.709680     0.097630    12.097450     5.702030     5.588920    20.525130    11.344170     6.727380    21.272410    13.653140     2.723950    18.712090    12.808140     5.867320    21.597310     8.845570     0.869960    18.072180     8.700350     6.479790    16.840850    10.893130     0.759890    14.446560     8.795750     4.896090    14.677160     7.004610     3.392660    13.841120    13.539640     4.207500    14.973860     1.259550     2.953380    11.919250     1.843910     2.866160    17.508830     1.827500     3.684120    16.897460    11.134680     5.594390    11.854430     1.606340     5.680800    17.241520     6.954540     2.800400    20.900260    11.275480     1.844100    21.034920     8.898070     6.240890    16.663080     3.372820     4.528500    13.624330     9.467190     2.473290    17.799800     6.095670     1.830980    17.900820     8.526870     5.371480    15.563640     6.957070     4.635210    16.757780    11.150770     2.946640    18.577360     6.521650     1.726950    14.312200    10.704850     3.205640    14.115470    10.287880     6.546000    18.080670     4.206950     6.628780    19.278180    12.085150     1.243740    18.843900    12.828530     4.351990    17.783760     8.234670     5.988340    13.926870    10.750940     6.394220    15.275100    11.244740     6.131960    23.250280    14.037300     6.703970    18.552470    14.461740     6.390420    17.366400    15.502300     0.295530    14.212240    15.225220     6.075500    13.657410    12.881010     4.328340    19.747370    15.463870     3.890030    20.620350    14.420450     2.508760    12.924740     0.424330     1.737530    17.513510    15.563080     4.575060    13.698830     3.644950     4.805390    14.022440     5.243970     6.798760    12.253180     2.701550     0.582750    15.655210     3.886800     1.177540    14.195410     3.763440     2.929740    15.692790     3.910620     3.311750    16.997600     4.673720     0.161780    17.304020     0.716360     0.281510    15.860850     0.373980     4.263910    16.559510    15.247000     5.221250    15.262580    14.747050     1.966690    14.768190     5.882230     2.189340    16.150320     6.620870     0.724300    12.130460     6.428390     0.455470    12.307420     4.678560     6.155770    20.743220    14.259620     0.659980    21.608360    14.139520     3.131510    18.001980    12.195790     3.345280    18.865930    13.542340     5.963860    21.136000     9.760000     4.768500    20.040150     7.521840     6.654970    17.362710    11.696420     0.240690    17.274740    10.270630     0.428310    13.549910     8.630450     1.259520    14.607610     8.012310     3.943000    14.907370     6.736590     2.759000    14.033190    14.327030     2.978540    13.979840    12.634080     3.898300    15.765940     1.710880     3.926190    12.100660     1.879720     2.910550    10.966460     1.807150     3.049590    17.121240     2.759440     1.990720    17.106860     1.557550     3.374850    15.940060    11.191160     5.352240    12.194930     0.681840     5.602460    10.891130     1.475750     6.096220    17.770760     6.221120     2.721700    21.793850    11.747480     2.747850    20.227980    11.949120     2.108380    20.906940     9.841970     2.620880    20.669530     8.354420     5.330730    16.300850     3.469260     6.504620    16.599990     2.412550     4.667480    12.645750     9.346410     4.727010    14.041240     8.601780     2.978290    12.466170     7.516840     1.524350    12.272300     2.664850     4.110600    12.122200     5.005330     0.035000    19.510450     4.920200     3.723680    17.723790     9.642000     6.667750     3.397550    13.349940     6.044830    21.068040    12.029600     4.608340    20.759850    11.316260     0.795000    19.016420     8.704300     3.374020    14.574270     0.901810     6.296780    17.465920     7.719050     1.607990    18.215540     5.761350 
    5.272930    19.322360     0.561790     2.233300    22.291360    14.733000     6.608960     5.723590    15.151860     3.060160     4.182950    15.566190     5.065210     4.344540     0.788530     2.087150     3.468400     1.164480     0.347270     6.592600     2.363070     3.286810     6.155730     2.654030     4.910270     9.340840     3.625750     1.947160     8.810950     4.008020     5.653510     0.883000     1.930250     2.191520    20.822370     2.455450     6.630260     3.366830     3.697600     3.473880     2.615810     4.047020     5.500830     6.151170     5.214580     1.986340     5.447980     5.487920     6.810600     8.749010     6.470540     3.522800     8.360570     6.957610     4.961770    10.930820     8.405300     1.543430    11.851790     7.458410     3.030960     2.730390     7.922640     6.423310     3.051540     7.520080     1.354470    21.513300     6.233390     4.320540    20.699660     7.257680     1.517160     5.452250     9.104720     4.807300     5.661140     8.992940     3.394770     8.440260    10.260160     6.637130     8.387450    10.283960     1.605350    11.124990    11.766890     4.975390    11.149910    11.924350     1.371900     2.570220    10.865970     4.836820     2.365620    10.559670     3.138190     5.364340    12.021170     6.509310     5.316090    11.750400     1.590310     8.116130    13.324130     5.021100     8.055920    13.226780     3.256170    10.850450    14.701760     6.702000    10.456040    14.884310     1.783950    13.785670    15.400820     5.258300     9.470470     0.254970     5.329870     3.937790    15.864010     2.993400    19.561170     0.486810     6.629700     2.897800     1.349910     3.289340     1.498660     1.830980     5.503700     5.277610     2.910840     2.091770     4.168850     3.464840     6.559440     8.056840     4.233050     3.406750     6.920680     4.909780     5.014910    10.310720     6.392020     1.992890     9.863440     6.188510     1.234330    22.302780     8.312110     5.045090    22.751830     8.436490     2.915890     3.859310    10.111960     6.465660     4.132610     9.820510     1.724760     6.990950    11.215100     5.092160     6.875320    11.001270     3.277780     9.529690    12.602550     6.552160     9.553620    12.363450     1.242970    11.893840    13.885370     5.124970    12.277720    14.345560     3.418900    10.997510     5.382690     3.390190    13.819160    11.044420     5.217040    18.107280     4.255380     1.360240    18.238400    12.695130     3.393390    17.456430     8.889940     6.651150    14.889890    11.496890     6.224650     3.228190    14.145470     0.756480    17.407370    15.380070     6.724090    13.066680    13.311230     4.477590    20.419410    15.001260     3.270530    13.301980     0.309570     3.715680    13.610750     4.778380     0.535380    12.375550     3.437960     1.633840    15.077130     4.266410     1.361390    17.559060     3.615590     0.831400    16.088930     0.631940     5.395090    16.493670    13.660090     0.830520    16.137250     6.688850     6.152120    11.729630     5.585170     6.495640    19.974930    11.180890     6.274750    21.625400    13.245770     4.525350    18.889890    12.830610     6.322380    21.623530     9.212970     0.873790    18.209700     8.772770     1.791660    16.247700    11.039340     1.633700    14.647510     8.879330     3.899100    14.546700     7.354110     3.947380    13.585020    13.501920     4.232100    15.897570     1.413810     2.724580    11.296140     2.077020     2.287780    17.920750     1.522200     5.513270    17.240700    10.331450     5.768000    12.590100     1.058130     5.094680    17.248050     6.598220     2.825960    20.641790    11.774070     2.028690    20.830020     9.395570     5.602180    15.335830     3.729440     5.485850    13.809960     9.280800     1.945810    18.448970     5.970420     1.861440    18.089680     8.821010     3.972470    15.417350     7.027000     6.144710    17.222530     9.607220     2.719790    19.041880     5.937110     2.822920    14.599240    10.896130     4.100210    13.667870    10.405450     5.968080    17.875000     3.640620     2.091150    18.890320    12.550730     0.619900    18.767260    12.356050     3.790090    17.480420     7.981070     6.393180    14.443180    10.662860     0.675950    15.416090    11.322340     6.094930    23.532200    13.710380     0.435970    17.371620    14.443530     0.101120    16.921090    15.987140     0.832230    14.529510    14.818630     6.651460    13.572680    12.434030     4.691110    20.337740    15.952690     3.720670    21.070050    14.915290     2.887190    12.539310     0.831840     2.607950    17.118130    15.731120     4.479470    14.094890     4.318510     3.830360    13.782510     5.744860     6.761870    12.545200     2.658800     0.942490    14.417550     3.932450     2.543460    14.645100     4.400570     1.576210    16.598320     3.634670     1.560280    18.088140     4.455430     6.751980    16.439170     0.681450     0.899870    19.036190    16.051860     5.930390    15.870320    13.183260     4.895090    15.932190    14.250140     0.974770    15.568390     5.937660     1.409960    16.961740     6.591010     0.068160    12.005740     6.137570     6.516520    11.850120     4.645130     0.308800    21.645330    13.729120     5.580750    21.268650    13.911650     4.644570    17.936090    13.018340     4.597870    19.298570    13.739710     6.470280    20.937440     9.868770     5.037450    19.816570     7.907510     1.437300    17.076850    11.442410     1.936860    16.478790    10.079180     1.148940    13.829000     8.937050     1.216540    15.150070     8.161250     3.018960    14.516780     7.874090     3.173570    14.004780    14.001150     3.751090    13.618350    12.443140     3.517950    16.486460     1.665620     3.407040    10.725550     2.417920     2.217240    10.683760     1.467210     2.014030    17.994760     2.537180     1.837960    17.223220     0.955190     5.561740    16.406570    10.853700     4.789240    12.893270     0.836270     5.762230    11.659710     0.633530     5.180330    17.866300     5.842180     2.599100    21.529630    12.133250     3.583390    20.162980    12.149320     2.218840    20.761660    10.395040     2.738690    20.465770     8.842130     5.396190    16.093470     4.248690     5.227160    15.636380     2.868490     5.668460    12.816870     9.121870     5.010180    14.043870     8.431790     2.787260    12.145500     7.083500     1.259000    11.820660     3.128570     3.372010    11.874060     4.977400     4.835570    18.921310     3.851350     4.231610    17.407250     9.494440     6.389200     3.910620    13.458580     6.385350    20.521220    12.009840     5.754760    19.304870    11.265860     0.864320    19.117370     9.042710     3.789340    15.072030     1.130280     5.951430    16.844230     6.825960     1.226540    19.056300     6.223060 