-1396.157500
-1396.369400
-1397.543500
-1396.245900
-1398.199100
-1396.536700
-1395.618500
-1396.309500
-1397.082400
-1396.075000
-1396.754600
-1396.651500
-1396.417500
-1396.866300
-1396.144300
-1396.680600
-1395.794200
-1397.002800
-1396.468800
-1396.241700
-1396.701000
-1397.161600
-1396.772100
-1397.618900
-1396.555800
-1396.248800
-1396.452400
-1396.976500
-1397.445200
-1396.457200
-1396.440500
-1396.535500
-1397.455000
-1397.554100
-1396.057300
-1396.743400
-1396.966200
-1397.157700
-1397.160200
-1396.715900
-1397.501600
-1397.547300
-1397.303400
-1396.696300
-1398.024100
-1396.942400
-1397.127100
-1397.396600
-1397.266900
-1396.859700
-1396.706700
-1396.653900
-1396.437900
-1396.533700
-1396.644900
-1396.781700
-1397.196100
-1397.086500
-1396.881800
-1396.807500
-1397.121500
-1396.500000
-1395.201400
-1396.118400
-1396.440200
-1397.294700
-1397.069900
-1396.309000
-1397.092200
-1396.817100
-1396.876100
-1397.240700
-1398.148900
-1396.959800
-1396.413800
-1396.240000
-1398.008000
-1397.130100
-1397.627800
-1396.271600
-1397.605400
-1397.602500
-1397.585900
-1397.064200
-1396.636200
-1396.975900
-1396.538200
-1397.391200
-1397.096300
-1397.455900
-1396.514800
-1396.686900
-1396.054900
-1397.114000
-1396.875100
-1396.485500
-1396.464500
-1396.748400
-1395.435600
-1395.345900
-1395.727600
-1395.151900
-1396.282400
-1395.834200
-1396.095900
-1396.545200
-1395.774000
-1396.179900
-1396.841500
-1396.280500
-1397.132000
-1395.715400
-1396.168100
-1395.881100
-1395.810600
-1395.875500
-1396.434700
-1395.802500
-1396.516700
-1396.663900
-1395.770800
-1396.642000
-1396.286400
-1396.509200
-1396.634600
-1395.924400
-1396.441100
-1396.894000
-1397.624700
-1395.999600
-1396.422100
-1395.600900
-1396.994700
-1395.637500
-1397.180600
-1396.514900
-1396.537800
-1397.008400
-1397.253300
-1396.382600
-1396.811100
-1397.072200
-1396.501200
-1396.385000
-1397.257000
-1395.556500
-1396.029600
-1396.302000
-1396.313900
-1396.486600
-1396.628400
-1395.844600
-1396.776100
-1396.937900
-1397.225400
-1395.702200
-1395.317700
-1395.850900
-1395.946200
-1395.596800
-1397.042900
-1396.260900
-1396.314900
-1394.480900
-1395.208200
-1395.180800
-1395.254100
-1396.078400
-1396.073600
-1395.387100
-1395.324500
-1394.964200
-1395.301700
-1395.481700
-1395.269900
-1395.150800
-1395.511400
-1395.776000
-1395.448900
-1395.233600
-1395.825700
-1395.817600
-1395.864400
-1395.437700
-1396.289900
-1395.918400
-1395.887500
-1396.033600
-1396.630200
-1396.238600
-1396.695200
-1395.972400
-1395.232800
-1396.687800
-1396.039400
-1395.452500
-1396.030000
-1396.441600
-1396.187800
-1395.408200
-1395.887700
-1395.131800
-1394.907500
-1394.742800
-1395.721700
-1395.818200
-1395.144800
-1395.340300
-1395.132200
-1394.700500
-1396.059100
-1395.342700
-1395.182100
-1394.294100
-1394.308400
-1395.198200
-1395.363100
-1395.165000
-1395.146200
-1395.383700
-1394.401800
-1395.324800
-1395.249700
-1394.727500
-1394.806600
-1396.167000
-1396.241700
-1396.524600
-1395.832300
-1396.421800
-1397.064300
-1396.752900
-1396.930400
-1396.471700
-1396.765800
-1397.101900
-1396.968100
-1396.598400
-1396.935300
-1397.298200
-1397.189900
-1396.786600
-1396.638600
-1396.654400
-1396.519400
-1397.768900
-1396.104400
-1396.609100
-1396.484100
-1396.416400
-1395.321700
-1396.125200
-1396.599200
-1396.600600
-1396.306700
-1395.906600
-1396.228800
-1396.766900
-1396.907100
-1395.353600
-1395.522400
-1395.490600
-1396.466500
-1396.826500
-1396.746800
-1396.469900
-1396.573300
-1395.916500
-1396.192900
-1397.300400
-1396.406900
-1397.252400
-1396.500800
-1396.345300
-1397.615200
-1397.182200
-1395.434200
-1396.351400
-1395.952700
-1396.111500
-1395.121300
-1396.202800
-1396.640800
-1395.497700
-1397.104500
-1395.915400
-1395.580700
-1396.909200
-1395.945200
-1396.374800
-1396.667800
-1396.756100
-1396.761200
-1396.349400
-1396.744200
-1396.435300
-1396.367400
-1397.021200
-1396.782500
-1397.320200
-1396.514100
