   -0.061779     0.438546    -0.067396     0.381572     0.363080     1.142971     1.125096     1.100694     0.389557     0.417274    -0.438599     0.680306    -0.158786    -0.028425     0.818154    -1.338451     0.121767     0.136405    -0.592411    -1.066558     0.651358    -0.532255     0.270355    -0.008752    -1.009580    -0.123504    -0.402643    -0.004552    -0.401860    -1.294995    -0.252346     0.354951    -1.021143     0.091457     0.053414    -0.215569     0.249965     0.332168     0.962717     0.171405    -0.033626    -0.146221     0.237400    -0.059426     0.279540     0.076373    -0.289797    -0.259866    -0.029646    -0.555715     0.262820     0.532925    -0.887570    -0.240171     0.738627    -0.275003     1.097719     0.195623     1.261006    -0.250292    -0.295821    -0.308654     0.317384     0.510634     0.874383    -0.653327    -0.262002    -0.086231    -0.736204     0.677971     0.150156     0.480770    -0.533856     0.183901     0.061759     0.310184     0.199013     0.065322     0.585324    -0.352991     0.429052    -0.088308    -0.083230    -0.215396     0.111241     0.137229     0.451061    -0.002450    -0.383797     0.603087    -0.311537     0.331038    -0.636934     0.058430    -0.784453    -0.568744    -0.058804     0.206982    -0.049150    -0.074599     0.386119    -0.983083    -1.359939    -0.354828    -0.252776    -0.300519    -0.064825     0.182787     0.126415     0.643688     0.049603     0.296412    -0.200819    -0.792063    -0.565282    -0.125262    -0.151319    -0.381219     0.007527     0.038841     0.475678    -0.170387     0.876220    -1.107092    -2.020398    -1.129763     0.588694    -0.301443    -1.952443    -0.210453     0.647554     0.892156     0.951797     0.871157    -0.588447    -0.235130    -0.142100    -0.004366     1.351823    -0.040720    -0.433225    -0.766064    -0.431392     0.004372    -0.222036     0.412322    -1.141751    -0.055722     0.962916     0.805909     0.052976    -0.074501     0.697453    -0.385072    -0.029005     0.280858     0.199476    -0.668827    -0.389240     0.253544    -0.250752     0.895952     0.266691     0.062760     0.423367    -0.738277     0.476223     0.231549     0.729844     0.045801    -0.737004     0.459629    -0.442328     0.373460    -1.042294     0.728175     0.291790     0.069385    -0.019473    -0.169603    -0.219583    -1.618242     1.874727     0.447449     0.142789     0.232753     0.554259     0.632427    -0.006898     0.156738    -0.284404     0.837597     1.200929    -0.730710    -0.289469    -0.994204     0.765968    -0.540799    -1.215644    -1.232138     0.003329    -0.927119    -0.731118     0.518061     0.339272    -0.204063     0.321406    -0.077773    -1.078446    -0.047939     0.225786    -0.084266     0.129999     0.863603     0.269113     0.395041     0.062122    -0.184782    -0.112588    -0.403101    -1.898722    -0.073782     1.122776    -3.905081    -0.529295     0.138512     0.730513     0.562179    -0.469468     0.231923     0.685365     0.252724     0.161139     0.102310     0.181522     0.827012    -0.735646    -0.051420    -0.040012     0.559286    -3.471299     0.007230     0.810847     0.785411     0.784935     1.772182     0.689890    -0.037361    -0.072659    -0.447130     1.299121    -0.924199     0.243356     0.333888     0.432353    -2.934890     1.900916    -0.368081     0.248949    -0.812599    -0.835603    -0.571010     0.744481     1.388803    -0.465127    -0.066400     1.273568     0.562718     1.078347    -2.264691    -0.185711     0.851185     0.526079     1.281728     1.829579     0.194011     1.706428    -0.640397     0.167746     0.296743     0.369846    -0.061044    -0.112127    -1.607352    -0.957361    -0.097257     0.016266     0.373403    -0.402639    -0.188958    -0.917888    -0.190442    -0.157158    -0.693004    -1.655340    -2.639930    -0.640639    -0.194167    -0.111947     0.303776    -0.171085     0.136649     0.555778    -0.745537     0.173625    -0.235530     1.439259     2.738202     0.044738    -0.775648     0.326350     0.019068    -0.017900    -0.518678    -0.693028    -0.030626     0.330212     0.051451     0.134594    -0.368057    -0.101413    -0.123770     0.631304    -0.395309    -0.087447     0.364851     0.296836     0.906890    -0.631798     0.281016     0.708330    -0.609353     0.400463    -0.275297     0.746381    -0.704867     0.340708    -0.239457    -0.359485     1.072789     0.808407    -0.541676     0.839633    -0.271249    -0.093656    -0.106234     0.992169    -0.420021     0.560190    -0.300595     0.438601    -0.511199     1.175392    -0.595553    -0.069295    -0.333485     0.109174    -0.504008     0.366098    -0.156397    -0.450701     0.035884    -0.446983    -0.373367    -0.164495     0.382219    -0.235111     0.349220    -0.139596     0.297183     0.462835     0.524859     0.171740     1.433933    -0.240585     0.852952     0.073059    -0.615417    -2.273678     3.686637     1.595140     0.159530     0.167220    -0.427055     0.024361    -0.443969    -0.244878    -0.054824     0.064182    -0.168674     0.349689    -0.148586    -0.257561    -0.042463    -0.157078    -0.470075    -0.270014     0.084153    -0.256015     0.681379     0.337792     0.536167    -0.111291    -0.361376     0.493204     1.505607    -0.875886    -1.295515     1.487187     0.836592     0.339874     0.383938    -1.098492    -1.368370    -1.053086     0.329766    -0.400637    -0.067409    -0.344717     0.546477    -0.497680     0.057199    -0.474804    -0.312998     0.041008    -0.500667    -0.284631    -0.208543     0.320261     1.466970    -2.666359     0.150582     1.335644     0.546914    -0.252329    -0.102539     0.431953     0.474007     0.962120    -1.246924    -0.988988     0.456614    -0.289660     0.325610    -0.295760     0.281150    -0.259312    -0.876805    -0.841065    -0.645160     0.050738     0.217430     2.201700     0.817958    -0.019331    -1.008512     0.078340    -0.132116    -0.258741    -0.718175    -1.529711     0.184751    -0.322021     0.045855     0.284377    -1.269816     0.380284     0.066489    -0.139282    -0.215576     0.368352    -0.199942     0.635555     0.895296    -0.128401     0.815586    -0.222796     0.076692    -0.730918    -0.122184     0.143079     0.706012    -0.061470    -0.158391     0.510043     0.595994     0.318353    -0.065768    -0.132990    -0.044338     1.166936     0.804424     0.053657     0.266202     0.266465    -1.032036    -1.015743     0.295456     0.174136     0.140187     0.106584    -0.038669     1.096801    -1.524179    -0.390483    -0.492128     0.021895    -1.008452     0.269470    -0.015549     1.086911    -0.695143     0.323998    -0.702097    -0.224801    -0.705388     1.350711     0.201611     0.262872     0.504311    -1.296679     0.836186     0.157434    -0.143701    -0.733534    -0.058852    -0.179290    -0.169141     0.388684    -0.449400     0.528026 
   -0.417310    -0.216658     0.117235    -0.339450     0.448020     0.855215     0.393587    -0.339491     1.029626    -0.345697     0.369035    -0.164936     1.153566    -0.603594     0.437929    -1.106449     0.753137    -0.623520     0.125329     0.584794    -0.718478    -0.515882     0.575393     1.315729    -0.006165    -1.011637     0.169777     0.164761     0.313425    -0.600267    -0.349081     0.139327    -0.120691    -0.140513    -0.782601    -0.444896     0.214679    -0.142464     0.847275     0.476744    -0.237727    -0.016771    -1.428212    -0.044503    -0.806199    -0.116200    -0.158624    -0.235540    -1.034512    -0.707062     0.204516     1.415378    -1.470696     0.779128    -0.295399    -0.268359    -0.089109     0.208727     0.209470    -0.120329     0.502339    -0.263828     0.341970    -0.465159    -0.424430    -0.329396    -0.317387     0.658448     0.463879    -0.425648    -0.271723    -0.094192    -0.363586    -0.599749    -0.243420     0.004635     0.044807    -0.132281    -0.379259    -0.089805    -0.503538    -0.080920    -0.274887    -1.314349    -1.042893     0.119015     0.255664    -0.179354    -0.773553    -0.107080    -0.183504    -0.216982    -0.300001     0.050724     0.363585     0.406240     0.267105    -0.645084     0.266636     0.059425     0.471073     0.342593     0.473510    -0.022697     0.369159     0.416319     0.723218     0.209064    -0.147547    -0.259321    -0.528781     0.371149     0.147742    -0.308851     0.307557     0.097826     0.439957     0.038282    -0.773323    -0.195152     0.404167     0.059318    -0.870560     0.851706    -1.749420    -0.540703    -0.211704     0.664195    -0.797902     0.324050     0.417275     1.119358     0.525830    -0.988428    -0.410018    -0.454134     0.551210     0.060312     0.889987     0.607435     0.448929     0.678069    -0.112256     0.062546    -0.390387     0.640782    -0.175534    -0.633246     2.224085    -1.129192     1.513924     0.037814    -1.113378     0.015732     1.203273    -0.112118    -0.083319    -0.156403    -0.400758     0.046094     0.108187    -0.089616    -0.493022    -0.178268    -0.136785     0.325629    -1.032620    -0.686429    -0.074565     0.936549     0.514499     0.306096     1.534239     1.752110    -0.214140    -0.352588    -0.023121     0.065719     0.879080     0.472780     0.179492     0.175495     0.103217     1.037824     0.434027     0.867669     0.850938    -0.265351    -1.520801    -0.878946    -0.269249    -0.375283     0.245435    -0.228402    -0.263258     0.373038    -0.264790     0.822495    -0.554768    -1.145433     1.446285     0.161667    -0.701215     0.646751    -0.497308     0.186068    -1.115166     0.349267    -0.718318    -0.169342    -2.874385     0.759940    -0.561236     0.507462     0.820608    -0.030661    -1.631301    -0.280837    -0.867769    -0.066282     0.594847     0.462634     0.519323     0.954653     0.031023    -1.201597     1.290670    -0.067567    -0.463088     0.800456    -0.018245    -0.580235     0.897825     0.473522     0.241048    -0.874933     0.341289    -0.301589     0.703017     0.699079    -0.454806     0.690282     0.696270     0.057929     0.216882     1.030877    -0.401068     0.217766     0.021810    -0.583712    -1.441870    -1.025592    -0.443044    -0.596338    -0.069035    -0.383490    -0.428075     0.030670     0.252002    -0.102904     0.113999    -0.651494    -1.698707    -0.965493    -0.011396    -0.327744     0.068865    -0.640896     0.657774     1.385490     0.108120     1.005022     0.366938    -0.847427     0.845902     0.498313     0.614607     2.707757     0.818013    -2.036954    -0.261638    -0.156455     0.477937    -0.006616    -1.625406     0.143311     0.429535     2.325288     0.141575     0.476811    -1.027627     0.900107     1.996142     0.034333     0.587147    -2.219122     1.298114     0.745557     0.736209     0.991701     0.089697    -0.073899    -0.218172     1.012693     0.361695    -0.585815    -0.273252     2.531296    -0.801928    -1.040517    -0.394679    -0.587639    -0.761116     0.222384     0.296343    -1.008339    -0.097931     1.183472     0.561706     0.321610    -0.013551    -0.133451     0.558461    -0.054441    -0.516222    -0.009849    -0.483733    -0.122380     0.345507    -0.250155     0.170219     0.015871    -0.189039     0.076070     0.381040     0.002649     0.102640     0.342185    -0.093118     0.110091     0.051805    -0.317525    -0.485978     0.338960    -0.035306     0.761656    -0.253155     0.548359     0.114244     0.020669     0.383301    -0.812817     0.707908     0.018495     0.633588     0.340420     0.004320     1.705524    -0.963822     0.034575    -0.431627    -0.398749    -0.377266    -0.089239    -0.018629     0.432124     0.580203     0.304072     0.544937     0.051972    -1.096143    -1.277561    -0.204805     0.300748     0.613294    -0.492139    -0.343556     0.207009     0.048839    -0.335017    -0.021928     0.430239    -0.868311     0.098387     0.687629    -0.136628     0.013178     0.211868    -0.355497     0.042242     0.149625    -0.688282     0.359474    -0.063978    -0.517317     0.303265     0.765543    -0.309602    -0.001854     0.176507     0.326323     0.128071    -0.118061     0.094841    -0.240808     1.579192     0.627025    -0.205978    -0.957088    -1.558736    -0.127357     0.608336    -0.285198     0.085004    -0.403106     0.042919    -1.397658    -0.116163    -0.448888     0.792799     0.121343    -0.086255     0.133101     0.140209     0.153323     0.732680     0.060621     0.282889    -0.345107     0.386252     0.683050    -0.312708     0.302440     0.222383     0.003341    -0.417124    -0.313642     0.074851     0.293665     0.858590    -0.154649     0.847157     0.076738     0.793177     0.104397     0.903247    -0.317731     0.470331    -1.097717    -0.642549     0.853599     0.230468    -0.524996     0.039812     0.152484     0.389316    -0.285134    -0.769131    -0.918642    -0.115417    -1.345616     0.016958    -0.132558    -1.599498    -0.606432    -0.109936    -0.525529    -0.061993     1.126875    -0.079651     0.069077    -0.409269     0.919630     0.984829    -0.150289    -0.752159     0.592037     0.197812    -0.408862    -1.736694    -0.154801    -0.171376    -0.161275     0.467630    -0.054188     0.996127    -0.135242     0.033325    -0.291070    -0.865960    -2.630992    -0.530754    -0.198011     0.350704     0.193853    -0.605902    -0.521666     0.101213     0.917660    -0.259204     0.325626    -0.202347    -0.411101    -0.209098     0.045859     0.106617     0.032999     0.450028     0.049711     0.397200     0.572961     0.738270    -1.281395     0.457142     0.085790    -0.398913     0.008565    -0.454370    -0.470867    -0.243947     0.572491    -0.251541    -0.005938    -0.733743     0.146634     0.489821     0.194282     0.040235    -0.266284     0.039741    -0.131248 
   -0.655784     0.518528     0.334337    -0.196435     0.344684     0.305863     0.805217     0.633324     0.346421     0.591055    -0.723871    -0.096550     0.204079     0.046490     0.068743     0.828748    -0.220011    -0.456168     0.547121     0.517771     0.087999    -0.204046     0.093338    -0.125375    -0.566169     0.044919    -0.027063     0.285168     0.460234    -0.651046    -0.173182    -0.481566    -0.344813    -0.564785     0.657904     0.726115    -0.320056    -0.260075    -0.313791     0.433073    -0.297880    -0.003132     0.997009     0.564922     0.487637    -0.385187    -0.389797     0.129660    -0.430557    -0.902813    -0.382675     0.225478    -0.245938    -0.602873    -0.022897     0.013786    -0.344489    -0.205924     0.539091    -0.063753    -0.289007    -0.294197    -0.034648     0.694575    -0.689681    -0.401902    -0.309764     0.127962     0.012350    -0.071950     0.646824     0.048802    -1.263249     0.171416     0.375830    -0.280621    -0.319349     0.261195     0.451991    -0.350480     0.247063     0.069296    -0.947330    -0.336955     0.572196     0.123362     0.458600    -0.363810    -0.442464     0.345387    -0.378641     0.261541    -0.316219    -0.009776    -1.231595    -0.374926     0.363783     0.242560    -0.347824     0.399936    -0.277932    -1.241785    -0.124620    -0.145840    -0.721041    -0.107009    -0.482590    -0.179903    -0.274657    -0.048680    -0.040419     0.143840     0.894031    -0.090679    -1.129294     0.312074    -0.464351    -0.011865     0.278761    -0.705386    -0.371327    -0.376026     0.397969     1.229780    -1.358937    -1.747378    -0.969808    -0.295516     0.204148     0.091153     0.268802     0.667593    -0.263218    -0.382036    -0.228829    -0.665756     0.461375     0.259172     0.088012    -0.537988     0.411954    -0.590217     0.160367     0.303078    -0.882441    -0.039034     0.991560     1.605162     0.235701     0.185612    -0.142046    -0.427802     0.372168    -0.131671    -0.867789     0.891031     0.575574     0.900815     0.250778     0.292957     0.258305     0.015485     0.167555     1.138236     0.862981    -0.262886     0.722370     0.303584    -0.003529     0.436261    -0.229492     0.421962     0.373023    -0.003751    -1.218890    -0.555532     0.361806    -0.042048     0.261467     0.646907    -0.643441    -1.475535     0.604231    -1.300680     0.267430    -0.939697     0.503191     0.017543    -0.269504    -0.506962     0.297162     0.288334     0.270898    -0.738390     1.656839     0.873899     1.380161     1.296080    -0.794280    -0.064985    -0.197462    -0.649065    -0.205617    -0.957432     0.889466     1.018349    -1.416392    -0.152258     1.394805     0.443322     0.931945     1.725264    -1.905153     0.630271     0.637859    -1.210088    -1.589389    -0.366452     0.111793     0.025596     0.310670     0.000173    -0.885980    -0.615199    -0.677416    -0.509860    -0.450409    -0.461417     1.038567    -1.294423    -0.953724     0.561710     0.963730     0.901782    -0.893302     0.124861    -3.274829    -0.650059     0.511861    -0.507824    -1.360195    -0.361858    -0.207734     0.771865    -0.498991    -0.883251     0.611932     0.426159     0.708632     0.285267    -1.109555     0.105673    -0.795917    -0.629197     0.288077    -1.173015    -0.767341     1.587696    -0.632199     0.820763    -0.906394     0.234397    -0.526140     1.180525    -0.371675    -0.268907    -0.006485     0.058267     0.832138     0.142629    -0.042389     0.459859     0.561248    -0.358147    -1.014258     0.298941    -0.227482     0.426239    -0.301094     0.711823     0.403377     1.330052     0.417552     2.963946     0.109425    -0.079493    -0.311595    -0.370093    -0.181583    -0.309960    -0.535081     0.109653    -0.738131     0.211493    -0.694874     1.723093    -0.301786    -0.210380     0.098480     0.087792    -0.389386    -0.603487     0.132645     1.092406     0.439786    -0.133513    -0.441112    -1.085991    -0.491144     0.901828     0.199798     0.525726     0.464827    -0.427298     0.554531     0.061229     0.054520     0.218815     0.284959    -0.217571     0.531342    -0.683466    -0.428519    -0.518874    -0.058685     0.013331    -0.647532    -0.999044    -1.304358    -1.473213     0.125056    -0.146352     0.576752     0.241453    -0.507529    -0.166455     0.481168    -0.797022     0.866254     0.281565     1.065303    -0.304605     0.865380    -0.351678     0.498232    -0.058023    -0.707955     0.424137     0.311061    -1.016904     0.603281     0.100750    -0.212931    -0.490922    -0.628734    -1.845925     1.771156    -0.357426    -0.093990     0.035412    -0.301002     0.003744     1.272873    -0.281289    -0.272391    -0.306644     0.385578     0.561743     0.197915     0.326261    -0.195679     0.193116    -0.123963    -0.304963    -0.339194     0.367963     0.361727     0.515857     0.064380     0.249370     0.692273    -0.116902     1.112444    -0.019196     0.562599    -0.781228     0.307874    -0.680977    -0.336256    -0.435063    -0.832872     1.818671     1.023684    -0.489947     0.135175    -0.997141     0.084557    -0.847080    -0.121945     1.493376     0.432951     0.950639    -0.214366    -0.519074     1.762114     0.348252     0.330441    -0.508582     0.746684     0.276576     0.582488    -0.533137     0.467003     0.524724     0.231829     0.105943     0.337092    -0.424443     0.636980    -0.873793     0.402761    -0.131149     0.002752     0.277622     0.363808     0.799291     0.399934     0.097841    -1.285240    -0.170449    -0.045256     0.283675     1.204685     0.758591    -1.400520     0.867354    -0.239437     0.782615     0.055530     0.009402    -0.971040     0.207823    -0.040176    -0.048713     0.060877     0.316193     0.004547    -0.134928    -0.195832     0.271126    -0.119384    -0.966626    -0.232187     0.528754     0.657585    -0.288669     0.133090     0.040361    -0.536498    -0.711609     0.611255    -0.144985     0.606620    -0.185496     0.369659    -0.017566    -0.312076     0.155971    -0.401546    -0.069884     0.048859    -0.044678    -1.493430    -0.989555    -0.282779    -1.632385     1.068625    -0.030673     0.264293     0.536893    -0.265507     0.177411    -0.438630     0.110115     0.436029     0.268038     0.009342    -0.098835     0.403006    -0.155276     0.835217    -0.030221     0.106734     0.070993    -0.471296     0.377676    -0.005542    -0.001940     0.996703    -0.049383     0.163114     0.011294     0.732263    -0.166845    -0.176097     0.277440    -0.069089    -0.568187     0.561488    -1.111130     0.078169     0.152887     0.339877    -0.370555    -0.021080    -0.007765     1.147917    -0.314306     0.125432    -0.037469     1.180373     0.016237     0.631293     0.063409    -0.249309    -0.297114    -0.498872    -0.837496     0.935867    -0.742693     0.253808 
   -0.309587    -0.440062    -0.058727    -0.418165     0.513171     0.122848     0.034031     0.074220     1.229341     0.873229     0.773964     0.662306     0.129617     0.096685     0.186027    -0.085967    -0.442380    -0.051160    -0.535990     0.238307    -0.170614     0.383749    -0.457557     0.198745     0.905117    -0.392739     0.132346    -0.063584     0.058747     0.208372    -0.766950     0.198376     1.035867    -0.094728     0.318156     0.001272     0.450856     0.175594     0.062342     0.622171    -0.798642    -0.247652     0.658020    -0.372297     0.109512    -1.012664    -1.055308     0.976238    -0.164403     0.374612     0.927397    -0.396996     0.336741    -0.085138     0.187809     0.125234     0.239698    -0.223800    -0.324444     0.343500    -0.406172    -0.427261     0.044271     0.754094    -0.038810     0.240752    -0.438750     0.719166     1.744595    -0.810229     0.366466    -0.112688     0.275225     0.128988    -0.014131     0.717038    -0.320283     0.457195    -1.747766    -0.338481     1.011799     0.718684     0.301046     0.106711     0.081098    -0.419755    -0.448745     0.355496    -0.574525    -0.346607    -0.940398    -0.805047     0.318092     0.181003     1.207989     0.887520     0.200784     0.081523     0.112837     0.441820    -0.175247     1.742508    -0.011893    -0.727085    -0.523496     0.306935    -0.267937     0.229374    -0.352967    -0.616875    -0.386452    -0.068788    -0.163897    -0.716002    -0.000028     0.160993    -0.425839    -0.289320    -0.140193    -0.859057     0.672972     0.384971    -1.442994    -0.309530    -1.126016    -0.245745     0.019200    -0.204280    -1.595471     0.030626    -0.043256     0.410305    -0.161442     0.634795     0.253193    -0.877547     0.997017    -0.211754    -0.077331    -0.082088    -0.377643    -0.278297     1.521136    -1.233667    -0.061693    -0.572898    -0.444888     0.985060    -1.049483    -0.710084    -0.289544     0.373436    -1.970608    -0.833223    -0.683427    -0.797971     0.544759     0.511882    -0.704826    -0.578306     0.418969    -0.816020     0.740243     0.152366    -0.679105    -1.129628    -0.043228    -0.524064     0.130753     0.919659    -0.024212    -0.792466     0.243504     0.029004     1.048317    -0.076592     1.538035     0.225679     0.074520     1.112322    -0.421407    -0.902383     0.828814    -0.705441    -0.236984     1.405565     0.437139     0.926449    -2.003590     0.344451     0.723424    -0.221863     1.075444    -0.002413    -0.307072    -0.953655    -0.757813     0.349070    -0.212971     0.324617    -0.195156    -0.672838    -0.472274    -0.124596    -0.750983     0.348054    -0.514683     0.605651    -0.243516    -0.539369    -0.423093    -0.209268     0.091495     0.816153     0.471571    -0.364520    -1.279447     0.607826    -0.106655    -0.537211    -0.781658    -0.367446    -0.527036     1.579342     0.337241     0.028386     0.930258     0.774399    -0.155438     0.612491     0.295110     0.247913     1.336400     1.483121    -1.066635    -0.126714    -1.266497    -0.863152    -1.007138     0.413435    -0.955057    -0.263044     0.992296    -0.053599     0.297450     0.765628     1.070488     0.940042    -1.683052     0.595871    -0.622540    -0.183689     0.499040     0.850243    -1.290246     0.857489     0.472479    -0.080438    -1.318652    -2.075694     0.842470    -0.197385     0.746041    -1.574389     0.563408    -0.670496     0.029354    -1.705711    -0.063760    -1.016405     1.894308     1.502894    -1.284125    -0.673617    -0.100312     0.811238    -1.620689    -0.836892    -1.259715    -0.884795    -0.340472     0.944203    -1.388229     0.927197    -0.504151    -0.832119     0.308340     0.215021    -0.072805    -0.920332    -1.088149     0.427779    -1.819603    -0.420718     0.153332     0.410520    -0.262163    -0.214079    -0.723342    -0.205261     0.442499     2.232412    -0.662438     0.941929    -0.006299    -0.181624     0.062403    -0.033392     0.312916     0.512113    -0.064098    -0.359149     0.339587     0.486477    -0.740067    -0.427528     0.416257     0.871967    -0.357001    -0.730600     0.284611    -0.331476     0.083925    -0.222590    -0.149468     0.004597     0.546081    -0.163737     0.281686    -0.209681     0.190065    -0.237949    -0.380330    -0.061739    -1.103936    -0.294791     0.244769     0.001718     1.086623     0.578748     0.691288    -0.846667    -0.024725     0.014549     0.305048     0.135800     0.416198     0.636205    -0.372160    -0.175516    -0.216906     0.057489    -0.210683     0.200028     0.358685     0.649554    -0.229363     0.128853    -0.204628     0.543190    -0.516564    -0.450464     0.516563     0.082038     0.165744    -0.115887     0.287245    -0.263531     0.265913     1.593062     0.886060     0.470781    -1.269862    -0.444125    -0.205425    -0.145235    -0.411573     1.041467     0.030891    -1.329639    -0.341138     0.231656    -0.196159    -0.173172    -0.326023    -0.932956    -0.617584     0.558701    -0.708396    -1.042019    -0.530190    -0.219564     0.557515     0.451526    -0.380564    -1.279097    -0.778544    -1.220191    -0.024292     1.027230     0.618091     1.022052    -0.066597     0.110844    -0.240820    -0.158843     0.017286     0.077758     1.133103     0.342654    -0.600917     0.056841    -0.088727    -0.312696    -0.135207    -0.023624    -0.474825    -0.209505    -1.141883     1.468773     0.840911    -0.439421     0.316356     0.671682     0.124797     0.552057    -0.043109    -0.506576     1.030117    -0.342067    -0.732382     0.022453    -0.430373     0.510492    -0.506565     0.870536     0.006706    -0.222057     0.193319    -0.287556     0.290607     0.048936     0.315108     0.480464    -0.479106     0.745279     0.168633     1.032647    -0.550440     0.528417     0.529521     0.628908     0.459218    -0.851459    -0.837009    -0.283554    -0.740826    -0.032976     0.518338     0.277675     0.310894    -0.502541     2.043983    -0.332327     0.255869     0.028482     1.084761     0.917608     0.353019    -0.490286     0.113045     0.768957    -0.805174     0.395014     0.446392    -0.041583     0.327311     0.627721    -0.343161    -0.188928     1.052166    -0.412195    -0.390853    -0.211097     1.029590     1.426374     0.014284    -0.635007    -0.232128    -0.327481     1.330229     0.335418     0.035857     0.391596     0.435182    -0.054646     0.439507     0.232588     0.745870    -0.287848    -0.437320     0.297894     0.842201    -0.365081     0.274020    -0.603625     0.341012    -1.190856    -0.029674    -0.399081     0.114991    -0.125317     0.075589     0.026999     0.351776    -0.334938     0.885210     0.686444    -0.218803    -0.711537     1.193529     0.419070     0.135717    -0.206403    -0.090024     0.361552     0.219548    -0.338601     0.006348     0.205619     0.270243 