1.022704770304673616e+01 0.000000000000000000e+00 0.000000000000000000e+00 5.107089474545253083e+00 8.848383720114696871e+00 0.000000000000000000e+00 0.000000000000000000e+00 0.000000000000000000e+00 1.743133353151853271e+01
1.024280542711998088e+01 0.000000000000000000e+00 0.000000000000000000e+00 5.111138803085842675e+00 8.857916335841094835e+00 0.000000000000000000e+00 0.000000000000000000e+00 0.000000000000000000e+00 1.730793714974295128e+01
1.021035069068560119e+01 0.000000000000000000e+00 0.000000000000000000e+00 5.101662128845451782e+00 8.853710660697641899e+00 0.000000000000000000e+00 0.000000000000000000e+00 0.000000000000000000e+00 1.735581318971222231e+01
1.022262297885271920e+01 0.000000000000000000e+00 0.000000000000000000e+00 5.124542976309263587e+00 8.863175997112385573e+00 0.000000000000000000e+00 0.000000000000000000e+00 0.000000000000000000e+00 1.727686312556327763e+01
1.021064834715046921e+01 0.000000000000000000e+00 0.000000000000000000e+00 5.127063525531215582e+00 8.859895990940682253e+00 0.000000000000000000e+00 0.000000000000000000e+00 0.000000000000000000e+00 1.721425777849016114e+01
1.021590305647786145e+01 0.000000000000000000e+00 0.000000000000000000e+00 5.116071184638312452e+00 8.859449594406378026e+00 0.000000000000000000e+00 0.000000000000000000e+00 0.000000000000000000e+00 1.726838239225443061e+01
1.020607448106952830e+01 0.000000000000000000e+00 0.000000000000000000e+00 5.102483697729147671e+00 8.853440892184295308e+00 0.000000000000000000e+00 0.000000000000000000e+00 0.000000000000000000e+00 1.741218256795355401e+01
1.024842140891712639e+01 0.000000000000000000e+00 0.000000000000000000e+00 5.117966102400465012e+00 8.847961920066165220e+00 0.000000000000000000e+00 0.000000000000000000e+00 0.000000000000000000e+00 1.715236348747052020e+01
1.020292655802199988e+01 0.000000000000000000e+00 0.000000000000000000e+00 5.113712864428819671e+00 8.838168538409865604e+00 0.000000000000000000e+00 0.000000000000000000e+00 0.000000000000000000e+00 1.731730927623707217e+01
1.020531795302044031e+01 0.000000000000000000e+00 0.000000000000000000e+00 5.131487384781612704e+00 8.842977072253628279e+00 0.000000000000000000e+00 0.000000000000000000e+00 0.000000000000000000e+00 1.729072449620596075e+01
1.025325236380437310e+01 0.000000000000000000e+00 0.000000000000000000e+00 5.125324401278509079e+00 8.838114469734367873e+00 0.000000000000000000e+00 0.000000000000000000e+00 0.000000000000000000e+00 1.719108546778888780e+01
1.020685648667149081e+01 0.000000000000000000e+00 0.000000000000000000e+00 5.104077928339043169e+00 8.836593286576141182e+00 0.000000000000000000e+00 0.000000000000000000e+00 0.000000000000000000e+00 1.733102644553590821e+01
1.020622518262612921e+01 0.000000000000000000e+00 0.000000000000000000e+00 5.118819474361893995e+00 8.866409209502199573e+00 0.000000000000000000e+00 0.000000000000000000e+00 0.000000000000000000e+00 1.728722404465153772e+01
1.020451234978271771e+01 0.000000000000000000e+00 0.000000000000000000e+00 5.129580807469311665e+00 8.847674795003340975e+00 0.000000000000000000e+00 0.000000000000000000e+00 0.000000000000000000e+00 1.719930530450394102e+01
1.022144993576475969e+01 0.000000000000000000e+00 0.000000000000000000e+00 5.129277271671607075e+00 8.888323307071935631e+00 0.000000000000000000e+00 0.000000000000000000e+00 0.000000000000000000e+00 1.727972350450867722e+01
1.020813493584252640e+01 0.000000000000000000e+00 0.000000000000000000e+00 5.116028195772925002e+00 8.881790570816587405e+00 0.000000000000000000e+00 0.000000000000000000e+00 0.000000000000000000e+00 1.734238876506902116e+01
1.023386272165066124e+01 0.000000000000000000e+00 0.000000000000000000e+00 5.127243637106646545e+00 8.849511617779757700e+00 0.000000000000000000e+00 0.000000000000000000e+00 0.000000000000000000e+00 1.718219782352691638e+01
1.020913323808006012e+01 0.000000000000000000e+00 0.000000000000000000e+00 5.114243570793294502e+00 8.856743047307672256e+00 0.000000000000000000e+00 0.000000000000000000e+00 0.000000000000000000e+00 1.736665850552683210e+01
1.023854802399479524e+01 0.000000000000000000e+00 0.000000000000000000e+00 5.116205359228254146e+00 8.879465363542987433e+00 0.000000000000000000e+00 0.000000000000000000e+00 0.000000000000000000e+00 1.718707811111878669e+01
1.025100424370668328e+01 0.000000000000000000e+00 0.000000000000000000e+00 5.117113020687217961e+00 8.850740216282808603e+00 0.000000000000000000e+00 0.000000000000000000e+00 0.000000000000000000e+00 1.715872317863237839e+01
1.020428392986307919e+01 0.000000000000000000e+00 0.000000000000000000e+00 5.114422951575330778e+00 8.845873985119872884e+00 0.000000000000000000e+00 0.000000000000000000e+00 0.000000000000000000e+00 1.718645946821992254e+01
1.020485113213755923e+01 0.000000000000000000e+00 0.000000000000000000e+00 5.114343045235999696e+00 8.837278918783781023e+00 0.000000000000000000e+00 0.000000000000000000e+00 0.000000000000000000e+00 1.743637030984254110e+01
1.025284050576103034e+01 0.000000000000000000e+00 0.000000000000000000e+00 5.102985632526547022e+00 8.864890871482588253e+00 0.000000000000000000e+00 0.000000000000000000e+00 0.000000000000000000e+00 1.716748810561041338e+01
1.020552992301236372e+01 0.000000000000000000e+00 0.000000000000000000e+00 5.114812903757396612e+00 8.872608003337932203e+00 0.000000000000000000e+00 0.000000000000000000e+00 0.000000000000000000e+00 1.727071310341431598e+01
1.025004848953424563e+01 0.000000000000000000e+00 0.000000000000000000e+00 5.128305233649609995e+00 8.851343417722278062e+00 0.000000000000000000e+00 0.000000000000000000e+00 0.000000000000000000e+00 1.743201604047443354e+01
1.024675417706886016e+01 0.000000000000000000e+00 0.000000000000000000e+00 5.104596657934516557e+00 8.873397151908317682e+00 0.000000000000000000e+00 0.000000000000000000e+00 0.000000000000000000e+00 1.724553985405262679e+01
1.023149291833246188e+01 0.000000000000000000e+00 0.000000000000000000e+00 5.130399055562220312e+00 8.849940039418811466e+00 0.000000000000000000e+00 0.000000000000000000e+00 0.000000000000000000e+00 1.734569892420112325e+01
1.025093552805864050e+01 0.000000000000000000e+00 0.000000000000000000e+00 5.105759504084921296e+00 8.858455739941069496e+00 0.000000000000000000e+00 0.000000000000000000e+00 0.000000000000000000e+00 1.718591172795048649e+01
1.021682320974339397e+01 0.000000000000000000e+00 0.000000000000000000e+00 5.107598898669141185e+00 8.849623375612885923e+00 0.000000000000000000e+00 0.000000000000000000e+00 0.000000000000000000e+00 1.721498824755991919e+01
1.023968873910747845e+01 0.000000000000000000e+00 0.000000000000000000e+00 5.101709849609180836e+00 8.835618813986814146e+00 0.000000000000000000e+00 0.000000000000000000e+00 0.000000000000000000e+00 1.727911260936988569e+01
1.024764517711609102e+01 0.000000000000000000e+00 0.000000000000000000e+00 5.122613216571657802e+00 8.871067097069882834e+00 0.000000000000000000e+00 0.000000000000000000e+00 0.000000000000000000e+00 1.724034084850280379e+01
1.021541810157467900e+01 0.000000000000000000e+00 0.000000000000000000e+00 5.124395334345738462e+00 8.843924167235082123e+00 0.000000000000000000e+00 0.000000000000000000e+00 0.000000000000000000e+00 1.731063761166174686e+01
1.024878498929094306e+01 0.000000000000000000e+00 0.000000000000000000e+00 5.112922413494044527e+00 8.875605047486819998e+00 0.000000000000000000e+00 0.000000000000000000e+00 0.000000000000000000e+00 1.746551132277568641e+01
1.024428682574425764e+01 0.000000000000000000e+00 0.000000000000000000e+00 5.113821579048789978e+00 8.875050772998360316e+00 0.000000000000000000e+00 0.000000000000000000e+00 0.000000000000000000e+00 1.734472342824800251e+01
1.021620568858261002e+01 0.000000000000000000e+00 0.000000000000000000e+00 5.130197220928701896e+00 8.835934791994398907e+00 0.000000000000000000e+00 0.000000000000000000e+00 0.000000000000000000e+00 1.737591576724434006e+01
1.022125611803429024e+01 0.000000000000000000e+00 0.000000000000000000e+00 5.116006327392059738e+00 8.880133392423539718e+00 0.000000000000000000e+00 0.000000000000000000e+00 0.000000000000000000e+00 1.742048854339781627e+01
1.023180140739226474e+01 0.000000000000000000e+00 0.000000000000000000e+00 5.118701750391561056e+00 8.836080509379852899e+00 0.000000000000000000e+00 0.000000000000000000e+00 0.000000000000000000e+00 1.724608647958402585e+01
1.021164991341385253e+01 0.000000000000000000e+00 0.000000000000000000e+00 5.122190706456411391e+00 8.877259991049191612e+00 0.000000000000000000e+00 0.000000000000000000e+00 0.000000000000000000e+00 1.719366794830687795e+01
1.025705448309178358e+01 0.000000000000000000e+00 0.000000000000000000e+00 5.113534571380369265e+00 8.855430210037022576e+00 0.000000000000000000e+00 0.000000000000000000e+00 0.000000000000000000e+00 1.742422720742293052e+01
1.021272039242774277e+01 0.000000000000000000e+00 0.000000000000000000e+00 5.111321081913978048e+00 8.860822508160232758e+00 0.000000000000000000e+00 0.000000000000000000e+00 0.000000000000000000e+00 1.730107356959575782e+01
1.021151886682076437e+01 0.000000000000000000e+00 0.000000000000000000e+00 5.116927519348677400e+00 8.841555595365619524e+00 0.000000000000000000e+00 0.000000000000000000e+00 0.000000000000000000e+00 1.726466896762044456e+01
1.024129779088525893e+01 0.000000000000000000e+00 0.000000000000000000e+00 5.105167923470824931e+00 8.870708409951022944e+00 0.000000000000000000e+00 0.000000000000000000e+00 0.000000000000000000e+00 1.734406968697757634e+01
1.022023634650451562e+01 0.000000000000000000e+00 0.000000000000000000e+00 5.104354495764790833e+00 8.851370927105213227e+00 0.000000000000000000e+00 0.000000000000000000e+00 0.000000000000000000e+00 1.747069429887471159e+01
1.020381216269189295e+01 0.000000000000000000e+00 0.000000000000000000e+00 5.116555680462883338e+00 8.840765990661280327e+00 0.000000000000000000e+00 0.000000000000000000e+00 0.000000000000000000e+00 1.746690707807932696e+01
1.021207429613531303e+01 0.000000000000000000e+00 0.000000000000000000e+00 5.103106365692814173e+00 8.835964182193935201e+00 0.000000000000000000e+00 0.000000000000000000e+00 0.000000000000000000e+00 1.742899375100368431e+01
1.021472966856662090e+01 0.000000000000000000e+00 0.000000000000000000e+00 5.103404791950064912e+00 8.865455730540238832e+00 0.000000000000000000e+00 0.000000000000000000e+00 0.000000000000000000e+00 1.724982388550714418e+01
1.021790911614477793e+01 0.000000000000000000e+00 0.000000000000000000e+00 5.115260391307608678e+00 8.884097551684906335e+00 0.000000000000000000e+00 0.000000000000000000e+00 0.000000000000000000e+00 1.720407826642599147e+01
1.022447552153248296e+01 0.000000000000000000e+00 0.000000000000000000e+00 5.103181775954261923e+00 8.837075921408786172e+00 0.000000000000000000e+00 0.000000000000000000e+00 0.000000000000000000e+00 1.744910558575597292e+01
1.022084415531709567e+01 0.000000000000000000e+00 0.000000000000000000e+00 5.110509140090061742e+00 8.841202011312685016e+00 0.000000000000000000e+00 0.000000000000000000e+00 0.000000000000000000e+00 1.734940138622753381e+01
1.020489268073874811e+01 0.000000000000000000e+00 0.000000000000000000e+00 5.120601318214649034e+00 8.861238543732953943e+00 0.000000000000000000e+00 0.000000000000000000e+00 0.000000000000000000e+00 1.741994980436782470e+01
1.020447991243771568e+01 0.000000000000000000e+00 0.000000000000000000e+00 5.131488229942583246e+00 8.862206693346115216e+00 0.000000000000000000e+00 0.000000000000000000e+00 0.000000000000000000e+00 1.739321759861296002e+01
1.021133229234641959e+01 0.000000000000000000e+00 0.000000000000000000e+00 5.130154372738935820e+00 8.846662566225468538e+00 0.000000000000000000e+00 0.000000000000000000e+00 0.000000000000000000e+00 1.714555613226779585e+01
1.020522904419789079e+01 0.000000000000000000e+00 0.000000000000000000e+00 5.103576183269322719e+00 8.880975771253664774e+00 0.000000000000000000e+00 0.000000000000000000e+00 0.000000000000000000e+00 1.724967769528350203e+01
1.023983805630721022e+01 0.000000000000000000e+00 0.000000000000000000e+00 5.108937000842286302e+00 8.869052484848788609e+00 0.000000000000000000e+00 0.000000000000000000e+00 0.000000000000000000e+00 1.726470639948031760e+01
1.022365040052168617e+01 0.000000000000000000e+00 0.000000000000000000e+00 5.122834280817654573e+00 8.842943894290938189e+00 0.000000000000000000e+00 0.000000000000000000e+00 0.000000000000000000e+00 1.744878791542020835e+01
1.023253850151025901e+01 0.000000000000000000e+00 0.000000000000000000e+00 5.124252540407129075e+00 8.871002714365653574e+00 0.000000000000000000e+00 0.000000000000000000e+00 0.000000000000000000e+00 1.721704759134576079e+01
1.021105806597519106e+01 0.000000000000000000e+00 0.000000000000000000e+00 5.116105024972832815e+00 8.861056710375651235e+00 0.000000000000000000e+00 0.000000000000000000e+00 0.000000000000000000e+00 1.715500646522271921e+01
1.024971500744527475e+01 0.000000000000000000e+00 0.000000000000000000e+00 5.128300378273740634e+00 8.854581957818609794e+00 0.000000000000000000e+00 0.000000000000000000e+00 0.000000000000000000e+00 1.719827564574381285e+01
1.025136797879589423e+01 0.000000000000000000e+00 0.000000000000000000e+00 5.114915792876873368e+00 8.853166627781069664e+00 0.000000000000000000e+00 0.000000000000000000e+00 0.000000000000000000e+00 1.745285395233822001e+01
1.022135451276917273e+01 0.000000000000000000e+00 0.000000000000000000e+00 5.123538255974047217e+00 8.875254279373240962e+00 0.000000000000000000e+00 0.000000000000000000e+00 0.000000000000000000e+00 1.719665890008950626e+01
1.023305705236084329e+01 0.000000000000000000e+00 0.000000000000000000e+00 5.109375100924338220e+00 8.866165012585220495e+00 0.000000000000000000e+00 0.000000000000000000e+00 0.000000000000000000e+00 1.716393375517268183e+01
1.022669737286829772e+01 0.000000000000000000e+00 0.000000000000000000e+00 5.102920327963737179e+00 8.852391361437547346e+00 0.000000000000000000e+00 0.000000000000000000e+00 0.000000000000000000e+00 1.716465934868156751e+01
1.023267218530853206e+01 0.000000000000000000e+00 0.000000000000000000e+00 5.130156133557273179e+00 8.853486703571002536e+00 0.000000000000000000e+00 0.000000000000000000e+00 0.000000000000000000e+00 1.717483288511899175e+01
1.021958561293141621e+01 0.000000000000000000e+00 0.000000000000000000e+00 5.111180773230666219e+00 8.836861153435201288e+00 0.000000000000000000e+00 0.000000000000000000e+00 0.000000000000000000e+00 1.733583163572992092e+01
1.024997966580237652e+01 0.000000000000000000e+00 0.000000000000000000e+00 5.113926113269361196e+00 8.846221774728132203e+00 0.000000000000000000e+00 0.000000000000000000e+00 0.000000000000000000e+00 1.728082519372058812e+01
1.020350178264785512e+01 0.000000000000000000e+00 0.000000000000000000e+00 5.118272814028767215e+00 8.836042664821778914e+00 0.000000000000000000e+00 0.000000000000000000e+00 0.000000000000000000e+00 1.724745650704227273e+01
1.023055053540176296e+01 0.000000000000000000e+00 0.000000000000000000e+00 5.110674746682563274e+00 8.874552949652596112e+00 0.000000000000000000e+00 0.000000000000000000e+00 0.000000000000000000e+00 1.715037774570076579e+01
1.023165006522270382e+01 0.000000000000000000e+00 0.000000000000000000e+00 5.109862545160003044e+00 8.845358720632843230e+00 0.000000000000000000e+00 0.000000000000000000e+00 0.000000000000000000e+00 1.732473855872529001e+01
1.026364137011062816e+01 0.000000000000000000e+00 0.000000000000000000e+00 5.119551449671802423e+00 8.846011636573367198e+00 0.000000000000000000e+00 0.000000000000000000e+00 0.000000000000000000e+00 1.718742788333236504e+01
1.021903813723495880e+01 0.000000000000000000e+00 0.000000000000000000e+00 5.119592791553454703e+00 8.870927377859461060e+00 0.000000000000000000e+00 0.000000000000000000e+00 0.000000000000000000e+00 1.725611089689710909e+01
1.025209058913676685e+01 0.000000000000000000e+00 0.000000000000000000e+00 5.122273017852467802e+00 8.872859304041286421e+00 0.000000000000000000e+00 0.000000000000000000e+00 0.000000000000000000e+00 1.727172615501010000e+01
1.020461410646044520e+01 0.000000000000000000e+00 0.000000000000000000e+00 5.115344400596934626e+00 8.864060689108910651e+00 0.000000000000000000e+00 0.000000000000000000e+00 0.000000000000000000e+00 1.726733396854810465e+01
1.020963845036502704e+01 0.000000000000000000e+00 0.000000000000000000e+00 5.123300244669762193e+00 8.858114608757874819e+00 0.000000000000000000e+00 0.000000000000000000e+00 0.000000000000000000e+00 1.718504521179709954e+01
1.026331893330477207e+01 0.000000000000000000e+00 0.000000000000000000e+00 5.107745879693951885e+00 8.883993299730258641e+00 0.000000000000000000e+00 0.000000000000000000e+00 0.000000000000000000e+00 1.719397998228264868e+01
1.024572655150054423e+01 0.000000000000000000e+00 0.000000000000000000e+00 5.124782271529611855e+00 8.850059688929741597e+00 0.000000000000000000e+00 0.000000000000000000e+00 0.000000000000000000e+00 1.725792883172065828e+01
1.021491542140935849e+01 0.000000000000000000e+00 0.000000000000000000e+00 5.101439668416040796e+00 8.872713835719967079e+00 0.000000000000000000e+00 0.000000000000000000e+00 0.000000000000000000e+00 1.736161171301054651e+01
1.023476046864563216e+01 0.000000000000000000e+00 0.000000000000000000e+00 5.114035050435975727e+00 8.863183653674118645e+00 0.000000000000000000e+00 0.000000000000000000e+00 0.000000000000000000e+00 1.722544745342140260e+01
1.022537270339422832e+01 0.000000000000000000e+00 0.000000000000000000e+00 5.128210940827713671e+00 8.838217686552978236e+00 0.000000000000000000e+00 0.000000000000000000e+00 0.000000000000000000e+00 1.747427877456790313e+01
1.023668654467876316e+01 0.000000000000000000e+00 0.000000000000000000e+00 5.111006004989149254e+00 8.840897706434912351e+00 0.000000000000000000e+00 0.000000000000000000e+00 0.000000000000000000e+00 1.732348058903891896e+01
1.023745985179067652e+01 0.000000000000000000e+00 0.000000000000000000e+00 5.118543416032085069e+00 8.843507811253896733e+00 0.000000000000000000e+00 0.000000000000000000e+00 0.000000000000000000e+00 1.721841872710114174e+01
1.023038490421857460e+01 0.000000000000000000e+00 0.000000000000000000e+00 5.124141730797735939e+00 8.870831189983578113e+00 0.000000000000000000e+00 0.000000000000000000e+00 0.000000000000000000e+00 1.718541421885333875e+01
1.020559419574039239e+01 0.000000000000000000e+00 0.000000000000000000e+00 5.101469188730346715e+00 8.858290216558934560e+00 0.000000000000000000e+00 0.000000000000000000e+00 0.000000000000000000e+00 1.718020014307878540e+01
1.022782169830123777e+01 0.000000000000000000e+00 0.000000000000000000e+00 5.108419773693039012e+00 8.837477826395229386e+00 0.000000000000000000e+00 0.000000000000000000e+00 0.000000000000000000e+00 1.744698069619256842e+01
1.023943395238913823e+01 0.000000000000000000e+00 0.000000000000000000e+00 5.102190320057904849e+00 8.862578566988108975e+00 0.000000000000000000e+00 0.000000000000000000e+00 0.000000000000000000e+00 1.718912499225019985e+01
1.024297418015802386e+01 0.000000000000000000e+00 0.000000000000000000e+00 5.116034892033796133e+00 8.837806972889900692e+00 0.000000000000000000e+00 0.000000000000000000e+00 0.000000000000000000e+00 1.743617078510677487e+01
1.021231877293756440e+01 0.000000000000000000e+00 0.000000000000000000e+00 5.129367385793039524e+00 8.858079806705219994e+00 0.000000000000000000e+00 0.000000000000000000e+00 0.000000000000000000e+00 1.720619437247674455e+01
1.025188418546653502e+01 0.000000000000000000e+00 0.000000000000000000e+00 5.116726156909463974e+00 8.854685356064539548e+00 0.000000000000000000e+00 0.000000000000000000e+00 0.000000000000000000e+00 1.720490359334748831e+01
1.024501734978720791e+01 0.000000000000000000e+00 0.000000000000000000e+00 5.128833352098955523e+00 8.879815475638265454e+00 0.000000000000000000e+00 0.000000000000000000e+00 0.000000000000000000e+00 1.718007624723528082e+01
1.021846152177977096e+01 0.000000000000000000e+00 0.000000000000000000e+00 5.119415448335962182e+00 8.837386246549408853e+00 0.000000000000000000e+00 0.000000000000000000e+00 0.000000000000000000e+00 1.717576347713105989e+01
1.020919052491277057e+01 0.000000000000000000e+00 0.000000000000000000e+00 5.131610033149004657e+00 8.854791420848917127e+00 0.000000000000000000e+00 0.000000000000000000e+00 0.000000000000000000e+00 1.740515157764720655e+01
1.021169569342950822e+01 0.000000000000000000e+00 0.000000000000000000e+00 5.104252798396573532e+00 8.865715610515712441e+00 0.000000000000000000e+00 0.000000000000000000e+00 0.000000000000000000e+00 1.725162367603574509e+01
1.022799015078199858e+01 0.000000000000000000e+00 0.000000000000000000e+00 5.128228378549629873e+00 8.846417346827559314e+00 0.000000000000000000e+00 0.000000000000000000e+00 0.000000000000000000e+00 1.715883151006342899e+01
1.021109749044373238e+01 0.000000000000000000e+00 0.000000000000000000e+00 5.123640522709352219e+00 8.841403180734280554e+00 0.000000000000000000e+00 0.000000000000000000e+00 0.000000000000000000e+00 1.737988924145595604e+01
1.022639364083954483e+01 0.000000000000000000e+00 0.000000000000000000e+00 5.130536372055938266e+00 8.859408529984214908e+00 0.000000000000000000e+00 0.000000000000000000e+00 0.000000000000000000e+00 1.731841930751367187e+01
1.026236031173783125e+01 0.000000000000000000e+00 0.000000000000000000e+00 5.111963123154924737e+00 8.841261334989827247e+00 0.000000000000000000e+00 0.000000000000000000e+00 0.000000000000000000e+00 1.721093292608529168e+01
1.022035542962469279e+01 0.000000000000000000e+00 0.000000000000000000e+00 5.110446068904722416e+00 8.857405671172214667e+00 0.000000000000000000e+00 0.000000000000000000e+00 0.000000000000000000e+00 1.731225832067658033e+01
1.020754348101868558e+01 0.000000000000000000e+00 0.000000000000000000e+00 5.104594641463181759e+00 8.837013322136519022e+00 0.000000000000000000e+00 0.000000000000000000e+00 0.000000000000000000e+00 1.735825758933201612e+01
1.021612660080957014e+01 0.000000000000000000e+00 0.000000000000000000e+00 5.115138199580808731e+00 8.854543240675777582e+00 0.000000000000000000e+00 0.000000000000000000e+00 0.000000000000000000e+00 1.731369465653441964e+01
1.022481778029740163e+01 0.000000000000000000e+00 0.000000000000000000e+00 5.107934851297444290e+00 8.841404129102018672e+00 0.000000000000000000e+00 0.000000000000000000e+00 0.000000000000000000e+00 1.731689337855226540e+01
1.022173215972573601e+01 0.000000000000000000e+00 0.000000000000000000e+00 5.120861346399339986e+00 8.839439018281771254e+00 0.000000000000000000e+00 0.000000000000000000e+00 0.000000000000000000e+00 1.718829433078973068e+01
1.021552785576005462e+01 0.000000000000000000e+00 0.000000000000000000e+00 5.129351133928969908e+00 8.857113962896479009e+00 0.000000000000000000e+00 0.000000000000000000e+00 0.000000000000000000e+00 1.748217479039130851e+01
1.021247162029632705e+01 0.000000000000000000e+00 0.000000000000000000e+00 5.116034666484560844e+00 8.881204058748565444e+00 0.000000000000000000e+00 0.000000000000000000e+00 0.000000000000000000e+00 1.720489385582586550e+01
1.024636382416594849e+01 0.000000000000000000e+00 0.000000000000000000e+00 5.124951130567535706e+00 8.874917387113686829e+00 0.000000000000000000e+00 0.000000000000000000e+00 0.000000000000000000e+00 1.727114909363266548e+01
1.022103048054652774e+01 0.000000000000000000e+00 0.000000000000000000e+00 5.130668620454765794e+00 8.859128853907526135e+00 0.000000000000000000e+00 0.000000000000000000e+00 0.000000000000000000e+00 1.746990145839647468e+01
1.022509989590217216e+01 0.000000000000000000e+00 0.000000000000000000e+00 5.110187777326669512e+00 8.863648017970771065e+00 0.000000000000000000e+00 0.000000000000000000e+00 0.000000000000000000e+00 1.726363055380713263e+01
1.021896501129406332e+01 0.000000000000000000e+00 0.000000000000000000e+00 5.122742313113732848e+00 8.873575971708675070e+00 0.000000000000000000e+00 0.000000000000000000e+00 0.000000000000000000e+00 1.737521015372807653e+01
1.020614093620461915e+01 0.000000000000000000e+00 0.000000000000000000e+00 5.130355235270480208e+00 8.884811742828347292e+00 0.000000000000000000e+00 0.000000000000000000e+00 0.000000000000000000e+00 1.721820920167391833e+01
1.022589846886662102e+01 0.000000000000000000e+00 0.000000000000000000e+00 5.130082191040695960e+00 8.885072780699102779e+00 0.000000000000000000e+00 0.000000000000000000e+00 0.000000000000000000e+00 1.717216399566406082e+01
1.022832236163025144e+01 0.000000000000000000e+00 0.000000000000000000e+00 5.120320903582353367e+00 8.840122498709179766e+00 0.000000000000000000e+00 0.000000000000000000e+00 0.000000000000000000e+00 1.733099392087263624e+01
1.022252759147100853e+01 0.000000000000000000e+00 0.000000000000000000e+00 5.103286219896281395e+00 8.860287733764598883e+00 0.000000000000000000e+00 0.000000000000000000e+00 0.000000000000000000e+00 1.732879582128031259e+01
1.021457013965768290e+01 0.000000000000000000e+00 0.000000000000000000e+00 5.129556453724278597e+00 8.842859243327563235e+00 0.000000000000000000e+00 0.000000000000000000e+00 0.000000000000000000e+00 1.740536890033627770e+01
1.025407823712476052e+01 0.000000000000000000e+00 0.000000000000000000e+00 5.115658328053637405e+00 8.836216197831298302e+00 0.000000000000000000e+00 0.000000000000000000e+00 0.000000000000000000e+00 1.743080470607034727e+01
1.025743386088365305e+01 0.000000000000000000e+00 0.000000000000000000e+00 5.112404755947357771e+00 8.858390099467394307e+00 0.000000000000000000e+00 0.000000000000000000e+00 0.000000000000000000e+00 1.738298760603757387e+01
1.020582938710180443e+01 0.000000000000000000e+00 0.000000000000000000e+00 5.115807899552171634e+00 8.846556134544737660e+00 0.000000000000000000e+00 0.000000000000000000e+00 0.000000000000000000e+00 1.726508995755580855e+01
1.026029392879165769e+01 0.000000000000000000e+00 0.000000000000000000e+00 5.129302156492503428e+00 8.838532940289027806e+00 0.000000000000000000e+00 0.000000000000000000e+00 0.000000000000000000e+00 1.733400813063794033e+01
1.020378244859084838e+01 0.000000000000000000e+00 0.000000000000000000e+00 5.126589863178616646e+00 8.844291036066763922e+00 0.000000000000000000e+00 0.000000000000000000e+00 0.000000000000000000e+00 1.728075230269063667e+01
1.023372562165853594e+01 0.000000000000000000e+00 0.000000000000000000e+00 5.121458716535485678e+00 8.844208373097076858e+00 0.000000000000000000e+00 0.000000000000000000e+00 0.000000000000000000e+00 1.715576832056085266e+01
1.018817370649312259e+01 0.000000000000000000e+00 0.000000000000000000e+00 5.100337002733465575e+00 8.835283130872435109e+00 0.000000000000000000e+00 0.000000000000000000e+00 0.000000000000000000e+00 1.752117127426084053e+01
1.026492331814834991e+01 0.000000000000000000e+00 0.000000000000000000e+00 5.124133004555637250e+00 8.863675277996645008e+00 0.000000000000000000e+00 0.000000000000000000e+00 0.000000000000000000e+00 1.701847410194607946e+01
1.023548649360631657e+01 0.000000000000000000e+00 0.000000000000000000e+00 5.095129108577755694e+00 8.901140334223926587e+00 0.000000000000000000e+00 0.000000000000000000e+00 0.000000000000000000e+00 1.757071277900202233e+01
1.027622393361313868e+01 0.000000000000000000e+00 0.000000000000000000e+00 5.098095694056088867e+00 8.822583648581481697e+00 0.000000000000000000e+00 0.000000000000000000e+00 0.000000000000000000e+00 1.744357210345107845e+01
1.021788713772936141e+01 0.000000000000000000e+00 0.000000000000000000e+00 5.107331158719094155e+00 8.880853150826826692e+00 0.000000000000000000e+00 0.000000000000000000e+00 0.000000000000000000e+00 1.743024318951031759e+01
1.028311344558877671e+01 0.000000000000000000e+00 0.000000000000000000e+00 5.108475063478379319e+00 8.900555307154792928e+00 0.000000000000000000e+00 0.000000000000000000e+00 0.000000000000000000e+00 1.758280997605444185e+01
1.022476402835355280e+01 0.000000000000000000e+00 0.000000000000000000e+00 5.124039590579990922e+00 8.887571402067873549e+00 0.000000000000000000e+00 0.000000000000000000e+00 0.000000000000000000e+00 1.721764472757789122e+01
1.024549367908579534e+01 0.000000000000000000e+00 0.000000000000000000e+00 5.119643437982940526e+00 8.879979478374689705e+00 0.000000000000000000e+00 0.000000000000000000e+00 0.000000000000000000e+00 1.707182414594755926e+01
1.023058528224188635e+01 0.000000000000000000e+00 0.000000000000000000e+00 5.129543107765895726e+00 8.901215056935948056e+00 0.000000000000000000e+00 0.000000000000000000e+00 0.000000000000000000e+00 1.737040899592919629e+01
1.021943729706385184e+01 0.000000000000000000e+00 0.000000000000000000e+00 5.098656017641137517e+00 8.904224674970373954e+00 0.000000000000000000e+00 0.000000000000000000e+00 0.000000000000000000e+00 1.765491751128794817e+01
1.020359809620546798e+01 0.000000000000000000e+00 0.000000000000000000e+00 5.137505373917379714e+00 8.870590358640868089e+00 0.000000000000000000e+00 0.000000000000000000e+00 0.000000000000000000e+00 1.763609414022827693e+01
1.027988160056269074e+01 0.000000000000000000e+00 0.000000000000000000e+00 5.118404887861928820e+00 8.848930374031777291e+00 0.000000000000000000e+00 0.000000000000000000e+00 0.000000000000000000e+00 1.765594524387271846e+01
1.021372485394492813e+01 0.000000000000000000e+00 0.000000000000000000e+00 5.128723507104479218e+00 8.844851191785481959e+00 0.000000000000000000e+00 0.000000000000000000e+00 0.000000000000000000e+00 1.712577645569779605e+01
1.028151812204884408e+01 0.000000000000000000e+00 0.000000000000000000e+00 5.118227683093513392e+00 8.852735764055408296e+00 0.000000000000000000e+00 0.000000000000000000e+00 0.000000000000000000e+00 1.749551356493922327e+01
1.026381240060485389e+01 0.000000000000000000e+00 0.000000000000000000e+00 5.101238257982823043e+00 8.836122860567295234e+00 0.000000000000000000e+00 0.000000000000000000e+00 0.000000000000000000e+00 1.729340539601427906e+01
1.024771920688479021e+01 0.000000000000000000e+00 0.000000000000000000e+00 5.121088350667633016e+00 8.836915501930816319e+00 0.000000000000000000e+00 0.000000000000000000e+00 0.000000000000000000e+00 1.741022025801944650e+01