1.718993487886302685e+00 9.440472210334827086e-01 1.445038769665961231e+00 5.034869972153021678e+00 9.048920963053311839e-01 1.411541721069990540e+00 8.604725041737093960e+00 1.062304152651381228e+00 1.389519368442765357e+00 3.376996766471176414e+00 3.857462056985565990e+00 1.415583726206225190e+00 6.850056438894957189e+00 3.993970904481179307e+00 1.506594572029703594e+00 1.017043942132343659e+01 4.001447644105531332e+00 1.479866125163457058e+00 5.202116940249290167e+00 6.895568531513281307e+00 1.411669332943672250e+00 8.483798594027948781e+00 6.861467724593922846e+00 1.491839474126326115e+00 1.189854909453177356e+01 6.848863007195152619e+00 1.383165650960221260e+00 1.711909480105900050e+00 9.079171529131254692e-01 7.246607771757105354e+00 5.122917124039297221e+00 9.132558685688346722e-01 7.300595495245709721e+00 8.548364016883173377e+00 9.936885142149290973e-01 7.266705672725074727e+00 3.453120483022099396e+00 3.881078507843094716e+00 7.158245205820253254e+00 6.856095645411870443e+00 3.932961077611109246e+00 7.228142997244967560e+00 1.020130294712979513e+01 4.025262667910035397e+00 7.165976870597694948e+00 5.067926574177157306e+00 6.898614914310478241e+00 7.233467993269480090e+00 8.572411160216912407e+00 6.870747428097041087e+00 7.172443610043518269e+00 1.198029595039773021e+01 6.969375168441586332e+00 7.231557676281190616e+00 1.682645149803068785e+00 9.500729821160912580e-01 1.313110848472325110e+01 5.058490989544143446e+00 9.305942754673285355e-01 1.311220595860846316e+01 8.471525509911883134e+00 9.049884079488733635e-01 1.296608425031389267e+01 3.421401080661684801e+00 3.976022903492176575e+00 1.307733829928545966e+01 6.880753543202732914e+00 3.866331647676894523e+00 1.305333261067858075e+01 1.013468849489756174e+01 3.841470925021614580e+00 1.310533133096553904e+01 5.161836812196814783e+00 6.978914521102786317e+00 1.304551922169227396e+01 8.567528279615572728e+00 6.832481921235213029e+00 1.298977205947721458e+01 1.189629245890577636e+01 6.879311761513752010e+00 1.300012604446779996e+01 3.365231498310278457e+00 1.888478851314117746e+00 4.457523747263233638e+00 6.904505952138741520e+00 1.931025848919207810e+00 4.334946842628934149e+00 1.026843205277858928e+01 1.946534494020160988e+00 4.298198829047481517e+00 5.060165705961066962e+00 4.927456749183850349e+00 4.413740543166405850e+00 8.452892117609088984e+00 4.855894312432774917e+00 4.470352881315986515e+00 1.202067333878614619e+01 4.926441115173874508e+00 4.475070326217908345e+00 6.730517946776764404e+00 7.869232641823011853e+00 4.497733924118387350e+00 1.013370666835231049e+01 7.938500384996029169e+00 4.369649205409846360e+00 1.355168222310584625e+01 7.922491598252437761e+00 4.316043074029940030e+00 3.379088942932528372e+00 1.944786903508229026e+00 1.024890992019366465e+01 6.871917428538147021e+00 1.914886088858390512e+00 1.016375519032398422e+01 1.032047018729107180e+01 1.999616383328165936e+00 1.019379671941722165e+01 5.158773927753400379e+00 4.903720762744582906e+00 1.010899429798278248e+01 8.563093203513727047e+00 4.867357333680121023e+00 1.020950671512384389e+01 1.186945402325211596e+01 4.871739386783872305e+00 1.013548161238876943e+01 6.866424289453160412e+00 7.845675560722365383e+00 1.025973884289983573e+01 1.019358394355376163e+01 7.792815412876532122e+00 1.027802260581920635e+01 1.362773341765577229e+01 7.931458690966072034e+00 1.012627036700449423e+01 3.408298369391623339e+00 1.897380350905160551e+00 1.599412229764426918e+01 6.782737470412389058e+00 1.887910455497137319e+00 1.593651566583979751e+01 1.029814228958164790e+01 1.941851954972175109e+00 1.611329776144850001e+01 5.171608302949277203e+00 4.874931490131221068e+00 1.609736116848269916e+01 8.520111773943291666e+00 4.952920331493386286e+00 1.597367756610792000e+01 1.186231882247770564e+01 4.995384817373643926e+00 1.607428867485066704e+01 6.826649360806644751e+00 7.846090968461583159e+00 1.609020246232718421e+01 1.016772797702752484e+01 7.922814581207463291e+00 1.595980089908147548e+01 1.361284792635374252e+01 7.861111937027086327e+00 1.605100012254992947e+01 5.856156443989883609e-02 5.834809855607151624e-02 -2.522418118091743536e-04 3.412284590184822886e+00 -8.537191775027971885e-02 -3.241472865199040293e-02 6.874808312684836054e+00 8.854334594582009832e-02 4.574873296911056986e-02 1.644539484331895673e+00 3.018854152989628226e+00 1.648180342904266224e-02 5.121236573716273277e+00 3.021571868884418866e+00 8.354358002688000440e-02 8.545626229112860628e+00 2.867650104044390691e+00 7.230074194618049677e-02 3.477550886804248620e+00 5.919384952903933517e+00 -1.563694083121289560e-02 6.817150599798381450e+00 5.879621775275318818e+00 6.944020680849308236e-02 1.030780775822575279e+01 5.967349612107889278e+00 5.206618350523276734e-02 -5.197687454087721731e-03 -4.469165435086402266e-02 5.818552940411814589e+00 3.415553732167550205e+00 4.617019822170147919e-02 5.900786996199799184e+00 6.857655723916115775e+00 -4.639247570461857428e-02 5.882562241950597404e+00 1.795896524716187992e+00 3.020515735323917372e+00 5.876366412547049833e+00 5.041173214922133106e+00 2.946728496249467977e+00 5.723366978965168883e+00 8.468470576328172683e+00 2.953574429591030004e+00 5.767893944522842098e+00 3.321855371930759748e+00 5.912873663828924542e+00 5.807040181401030843e+00 6.752082612670523787e+00 5.854060093905046891e+00 5.873929643370860987e+00 1.016895212609813370e+01 5.953154701548816874e+00 5.896329620752669420e+00 1.587191757708212095e-02 -4.726847237760047060e-02 1.169435678572241954e+01 3.438767781646378641e+00 -9.072504200716051403e-02 1.156729198870359276e+01 6.746707441153363405e+00 1.705200528537091295e-02 1.162324380770738763e+01 1.757176567745173834e+00 2.940069657127391434e+00 1.164304817824199034e+01 5.168083464011970385e+00 3.036436822431916926e+00 1.156698497616391741e+01 8.582585461773202695e+00 2.888128967585924745e+00 1.154294036996464001e+01 3.360703218576843732e+00 5.868660817758684978e+00 1.169551777614510435e+01 6.834116648606491040e+00 5.834395499979447841e+00 1.164834831929873715e+01 1.028550710819316727e+01 5.886782225788143919e+00 1.164409582635603790e+01
1.700634905876647673e+00 9.882930922542655372e-01 1.447526934160307865e+00 5.176150688853921267e+00 1.073613412177919058e+00 1.410265825209756629e+00 8.621970411573116166e+00 1.039377178202552265e+00 1.379980645840557019e+00 3.502003634462560022e+00 3.859913240484842856e+00 1.326233481857076457e+00 6.919968214745948032e+00 3.942329166168561549e+00 1.389595840105075863e+00 1.029917170910044710e+01 3.984601804730710128e+00 1.466145805315000494e+00 5.171892645935615818e+00 6.814503418828638637e+00 1.427478394430025554e+00 8.549695874380486060e+00 6.829732287567393811e+00 1.404475469662043841e+00 1.187561125133808559e+01 6.824430064677152075e+00 1.453299375923250869e+00 1.754367459510024485e+00 9.275376225513927153e-01 7.096037189616367868e+00 5.020167130913363529e+00 1.038982993475669581e+00 7.184368565565417697e+00 8.588002752510821125e+00 1.070180310687858682e+00 7.256350567740797786e+00 3.366363381715680614e+00 3.973682067177410460e+00 7.209852575792683460e+00 6.840789658213752844e+00 3.920344791124831918e+00 7.160742541148747975e+00 1.027145887106847510e+01 3.909206319657904771e+00 7.268807414638389197e+00 5.180970220343390054e+00 6.858510981815724605e+00 7.118934069101968909e+00 8.502573620032649160e+00 6.964808262034163810e+00 7.165844180392140217e+00 1.195863406162609266e+01 6.920053891861449813e+00 7.115134786493283237e+00 1.762657828072439425e+00 9.181607139960976660e-01 1.293299360547316645e+01 5.102764715577844612e+00 9.022131315710045785e-01 1.292370762831110476e+01 8.485464722739358479e+00 1.044715714627205250e+00 1.285632335637397894e+01 3.343906351025599299e+00 4.036562757422690773e+00 1.287839170676070388e+01 6.781116661329151363e+00 3.842817870733841623e+00 1.292309888030870013e+01 1.030047019592552715e+01 3.994751626234663178e+00 1.300031184823127006e+01 5.196212475715871193e+00 6.964194241864359647e+00 1.293282787245938437e+01 8.439797587946321400e+00 6.966607541954301652e+00 1.288099356826977271e+01 1.202648182787985576e+01 6.959841425674421878e+00 1.294818323623179168e+01 3.408567082479661892e+00 1.925666823819474960e+00 4.314563228013656548e+00 6.885652394354414341e+00 2.015005841475367987e+00 4.340300947187439640e+00 1.020144564411605437e+01 1.980384974322815017e+00 4.440954343683404915e+00 5.118011242507121139e+00 4.862930959974364420e+00 4.413681776738942020e+00 8.514390848301673032e+00 4.845153515966652336e+00 4.434441500425037042e+00 1.201315341487007515e+01 4.983521759700175302e+00 4.401285739939885033e+00 6.781060789768506680e+00 7.886149501071177959e+00 4.456212880679178312e+00 1.030396748357185643e+01 7.827314256556490157e+00 4.308962978743915428e+00 1.366671785112353454e+01 7.905510726357600326e+00 4.403422316744182829e+00 3.416238525197871745e+00 1.931002370423431369e+00 1.011468946237756406e+01 6.913302076047887823e+00 1.898518966642685601e+00 1.009005235806248457e+01 1.027110381318894383e+01 2.052942593394885495e+00 1.016091821688815067e+01 5.091798776907721091e+00 4.842907532243195590e+00 1.007989681841729990e+01 8.470099249384801965e+00 4.885946918359037383e+00 1.017666771935449965e+01 1.196784123104612618e+01 4.892597537531440999e+00 1.004937851864381670e+01 6.846627317270604252e+00 7.955595193881625171e+00 1.021145252547980675e+01 1.017968750386990351e+01 7.953477248591381610e+00 1.010420879780540560e+01 1.363603791753649119e+01 7.968651321835589663e+00 1.019551635583898097e+01 3.500346106314798700e+00 2.014839268903821257e+00 1.599439694490427577e+01 6.892306532651653939e+00 1.926156341378426395e+00 1.588036807756078161e+01 1.019370691075291546e+01 1.984059746844073269e+00 1.594867975069325539e+01 5.157421809835248894e+00 4.985789685873052157e+00 1.600192390197384640e+01 8.552002281589647481e+00 4.933620545564811444e+00 1.597904847187508004e+01 1.196891283469944156e+01 5.018513966170196738e+00 1.598530547559869852e+01 6.874735175781904850e+00 7.963702459912891385e+00 1.595593352072634907e+01 1.018441085740979446e+01 7.916589051445293457e+00 1.584773299932212964e+01 1.366188155434592133e+01 7.870432815133909799e+00 1.595826716884088015e+01 -6.205464659738219729e-03 2.804247887525736227e-02 9.553956055580781204e-02 3.507310580422374535e+00 9.552268619994416787e-02 -9.022257643075543010e-02 6.830250628103220478e+00 -2.919826542063285596e-02 2.703556783188712162e-02 1.626198729957614164e+00 2.977537058013108417e+00 -1.820958608254315964e-02 5.032175933298518089e+00 2.942614288501231190e+00 9.844788280576542705e-02 8.589081946562405534e+00 2.955172955597010542e+00 -3.496831217953200871e-02 3.340565006841594187e+00 5.855166710973006339e+00 1.724799924654995403e-02 6.812997117078223752e+00 5.826807279771660575e+00 9.910484063268504371e-04 1.027510390391522677e+01 5.861377660749429452e+00 7.006427427753431081e-02 -4.976024508539358959e-02 -2.644483646250546383e-02 5.732055531503867485e+00 3.455371520220985815e+00 -2.369667294954361930e-02 5.704964385507460989e+00 6.809950780989435515e+00 5.650834425873669381e-02 5.736792232382272871e+00 1.724279736262872120e+00 2.985406805122113205e+00 5.753150607582187881e+00 5.202804253633755316e+00 2.931293140374874095e+00 5.835716745060343769e+00 8.611859068785165050e+00 3.048080909321417398e+00 5.724406000676141915e+00 3.484356662509178193e+00 5.952863490771964194e+00 5.817776029111729308e+00 6.753808063088230007e+00 5.862128902127042629e+00 5.724904994229053301e+00 1.016430228683598180e+01 5.934003042071249290e+00 5.737899221903942859e+00 7.293385568350047032e-05 -8.659094049730749199e-02 1.161596630162035382e+01 3.362490224328889443e+00 5.195055832855696720e-02 1.160489323404843809e+01 6.868822516292799385e+00 -5.569367865283134100e-02 1.148308608072277437e+01 1.635926972589811568e+00 3.018586051072298826e+00 1.146843543488748018e+01 5.060049899649913030e+00 2.916920606531442139e+00 1.155467899738921744e+01 8.509028614660657297e+00 2.903880254171809394e+00 1.155925962212459268e+01 3.484795841960463658e+00 5.854744126124831638e+00 1.147611735436124292e+01 6.858453418504941723e+00 5.955830682606183757e+00 1.153833976224791869e+01 1.022139596227070690e+01 5.868657028457785252e+00 1.146481513005970498e+01
1.742755045341314535e+00 9.938616673295571635e-01 1.342810512683672464e+00 5.020251833796055330e+00 9.237450644535455391e-01 1.488052957063472848e+00 8.503612240273703549e+00 1.073517482273298462e+00 1.359011314560145678e+00 3.313364691312947308e+00 4.001026699074170523e+00 1.407376398748513280e+00 6.891882171938169321e+00 4.027935885296524354e+00 1.492888268766317861e+00 1.026132842925882116e+01 3.850764687706507150e+00 1.405848656724009160e+00 5.060152842210110080e+00 6.836848134911658548e+00 1.493697202335873442e+00 8.494344721088969763e+00 6.835102755833353250e+00 1.401589897577057986e+00 1.200084282375954814e+01 6.946559882298961597e+00 1.477414717854461879e+00 1.700769548413849863e+00 9.631769800426640549e-01 7.134189976904856678e+00 5.118857179383388356e+00 9.892595089734421698e-01 7.158344170910449833e+00 8.520869764743448371e+00 1.015710797373399865e+00 7.250431904208693545e+00 3.410908076735421623e+00 3.836458990367759281e+00 7.270592531701788985e+00 6.711297518223057423e+00 3.849800458603227060e+00 7.112004427446483312e+00 1.017369031201677565e+01 3.982786549709370405e+00 7.163591368291243988e+00 5.091361734494920910e+00 6.846899065347148650e+00 7.122689471389407778e+00 8.424045535911584892e+00 6.971213397689195901e+00 7.122022344609805877e+00 1.194091946231906221e+01 6.858949315438648497e+00 7.177215166065106899e+00 1.636609495524232738e+00 1.044477810821469621e+00 1.307501206705089913e+01 5.059930468139929083e+00 9.120706455324946171e-01 1.293197782129800011e+01 8.416583626734530199e+00 1.070386444035831497e+00 1.300212040121327028e+01 3.442252652518967615e+00 4.001719104838707075e+00 1.293073773952324679e+01 6.805972065692829531e+00 3.909715679104041275e+00 1.303245076055640617e+01 1.021237186424859722e+01 3.957166758136709817e+00 1.289839115526283386e+01 5.080858987444505814e+00 6.815098954230753847e+00 1.293964608171901531e+01 8.580429450595648433e+00 6.964033009926426487e+00 1.288650907459021511e+01 1.198052573839367696e+01 6.975579236930982141e+00 1.290395185495715324e+01 3.310269562467389903e+00 2.060940214659205516e+00 4.370096225674552137e+00 6.903635066109254481e+00 2.060553306166823528e+00 4.457409617738568919e+00 1.030000786156418258e+01 1.950328653597635187e+00 4.476793003896753831e+00 5.187466907437042529e+00 4.874919979946896298e+00 4.408371442634321014e+00 8.477598805707273755e+00 4.819280493784508401e+00 4.423434036947372583e+00 1.198209630989445706e+01 4.932325387160661379e+00 4.438711130540252014e+00 6.833724810793640358e+00 7.813072340771639368e+00 4.435147707672625117e+00 1.025872399774311816e+01 7.855484297371356561e+00 4.389973633871320224e+00 1.357184786222258843e+01 7.916460304808052406e+00 4.458593140871220051e+00 3.340334929273011788e+00 2.014772539415073282e+00 1.023066199200144588e+01 6.800766275739430711e+00 1.998859477752733538e+00 1.023927480595598816e+01 1.029560228702203872e+01 2.063779231478614751e+00 1.009942411127353523e+01 5.074430671457283992e+00 4.954091332045143403e+00 1.011923083448026617e+01 8.436031532603502470e+00 4.965046799069358308e+00 1.009087033511991649e+01 1.182716316829774428e+01 4.831761574536800552e+00 1.011602294932191981e+01 6.805936896964008831e+00 7.848710114304695118e+00 1.007995528387314366e+01 1.028527258592766991e+01 7.793380215614384987e+00 1.018835233088117320e+01 1.364823242885921672e+01 7.849957955652201669e+00 1.018428767987260564e+01 3.446600167055476227e+00 1.871767827422067931e+00 1.603054631447228573e+01 6.761492660104068797e+00 1.902885873399228212e+00 1.588392100792377803e+01 1.025332062961054547e+01 1.876989029958658906e+00 1.602504325967752763e+01 5.075112714674496317e+00 4.932585590498355543e+00 1.589612483840188339e+01 8.552300986701482088e+00 5.014615519408662792e+00 1.598264083340318109e+01 1.187198526560986522e+01 4.955791443827004983e+00 1.601304517229776891e+01 6.842504859685338836e+00 7.863251360257047295e+00 1.600240778209449033e+01 1.010757642345883411e+01 7.772688890236405967e+00 1.594190670661902764e+01 1.358608090306561067e+01 7.841917094015023793e+00 1.593272899969877621e+01 5.227660120335744787e-02 6.639431024546393889e-02 -8.441065840312814150e-02 3.331265037019004893e+00 -6.623216773302545435e-02 -2.679869013982567882e-02 6.818865112047270749e+00 -7.998124354235545963e-02 -8.707757660604850680e-02 1.689564467739315345e+00 3.008654048135721570e+00 -8.411650488502908640e-02 5.118398419100875785e+00 3.021245737093529282e+00 8.233568871714018467e-02 8.597273012097106815e+00 2.942239327326912957e+00 -3.514609957605722285e-02 3.403861521777071353e+00 5.895668004349840174e+00 -6.354481684272463016e-02 6.805130146631121590e+00 5.875138047502150407e+00 -6.533305746422196636e-02 1.016671617446984044e+01 5.929871696718562291e+00 -2.237695201756971508e-02 -2.487757141081582343e-02 3.349047664914416023e-02 5.832260482726895567e+00 3.496513028526601286e+00 7.253028658068971790e-02 5.708791340334435027e+00 6.829424416506824080e+00 -1.630289700171433029e-02 5.885050998303309910e+00 1.648071576018384166e+00 2.913381115634044782e+00 5.770045556647212415e+00 5.110847490554944805e+00 3.023048469050446219e+00 5.786147264338596941e+00 8.538594456605126837e+00 2.881232926030540931e+00 5.824488707492168516e+00 3.423066414524542189e+00 5.851830895564971158e+00 5.820596936633847029e+00 6.810511075826481076e+00 5.860134931360970079e+00 5.867973890706130291e+00 1.016101009767604424e+01 5.972751922112118805e+00 5.808503310718130308e+00 -3.198667255538190091e-02 5.074698570481806642e-02 1.148542613895096309e+01 3.423564414719678428e+00 1.636623334001188756e-02 1.147907411310186454e+01 6.734651155862531269e+00 2.322818377313290092e-02 1.164751967550894918e+01 1.626720208583880112e+00 2.939507463754272631e+00 1.149935106221025549e+01 5.014271166376894406e+00 2.857433417245358154e+00 1.159574652450764631e+01 8.525906896812015745e+00 3.020984707182578610e+00 1.162948962463733871e+01 3.412981942883415165e+00 5.834007608692970415e+00 1.160210230702186784e+01 6.767345836093383582e+00 5.892466725847506304e+00 1.151904958027546400e+01 1.022448346914918460e+01 5.904117743097033078e+00 1.164268652043907615e+01
1.709889521294880588e+00 9.138638515812348428e-01 1.341667220541975736e+00 5.167404260220493484e+00 1.050752576220006285e+00 1.333876913068883896e+00 8.474592559009947124e+00 9.115681950250399401e-01 1.401837921093167294e+00 3.420843353644657192e+00 3.955217013575015539e+00 1.464021968364443538e+00 6.842980591420123382e+00 3.920821790850065991e+00 1.468876968316097154e+00 1.029393015046968785e+01 3.963058642240568030e+00 1.385389810258170762e+00 5.189276188255949052e+00 6.985636884330476803e+00 1.453170684072595087e+00 8.577058544865987955e+00 6.987700808027276445e+00 1.327853306750833573e+00 1.191653093295811416e+01 6.828432194551499634e+00 1.351545658925161542e+00 1.627291536673894701e+00 9.840126765036616430e-01 7.087143490471596863e+00 5.034185402846034663e+00 1.033046500321772809e+00 7.082646425234559118e+00 8.469085575275490996e+00 1.034907736947183077e+00 7.095234771594319589e+00 3.464760751028632235e+00 3.977075050310486581e+00 7.177437488291151801e+00 6.876158311360166309e+00 3.968051020810429819e+00 7.084259556046293760e+00 1.016168858995539104e+01 3.853640668640576639e+00 7.171969197756151715e+00 5.039906280281130968e+00 6.810257879536946390e+00 7.102301794163374815e+00 8.498208943643840385e+00 6.890733736320679981e+00 7.153706603942211473e+00 1.196259987171313988e+01 6.852159281728411599e+00 7.111837611060720654e+00 1.736920688844763472e+00 9.167273253078974671e-01 1.300185464091540055e+01 5.043572442584867588e+00 9.127154280640659145e-01 1.294575135658459786e+01 8.472221996841609482e+00 9.257475000996060466e-01 1.284306957622366419e+01 3.330407268372662877e+00 3.942084983052705827e+00 1.300882732841531286e+01 6.885075453100618859e+00 4.004748039198125831e+00 1.294245847445824182e+01 1.026744606610797916e+01 3.945052311128311562e+00 1.283007007604019201e+01 5.083116218017339705e+00 6.927220266649174896e+00 1.283401070005399802e+01 8.590649876341988289e+00 6.923863855116039190e+00 1.289154321920972457e+01 1.184871749990184675e+01 6.888454227292213794e+00 1.294558232828062039e+01 3.316371093984294305e+00 1.900119109781202464e+00 4.365971493998178410e+00 6.724580710054445021e+00 2.057626961381266106e+00 4.369224960486615572e+00 1.028314331173032059e+01 2.065941753322495078e+00 4.266442651681253473e+00 5.205150864784686249e+00 4.825814600627888140e+00 4.338841742997854745e+00 8.564580588803590189e+00 4.884992675708324406e+00 4.285887192174202553e+00 1.199992207368430108e+01 4.857972811749309727e+00 4.311406408332551621e+00 6.776719663990842690e+00 7.960924993117260762e+00 4.399894504727617672e+00 1.016491449912069811e+01 7.883239154886220845e+00 4.295903842278955942e+00 1.371314571131741111e+01 7.848283143076582036e+00 4.268919126784183504e+00 3.395938494640238225e+00 1.884636336958369185e+00 1.011859186250440956e+01 6.837274384804917560e+00 2.037206539300091102e+00 1.014402153796446271e+01 1.019017347175465460e+01 1.877102095031329743e+00 1.008612703110241604e+01 5.033223428552018319e+00 4.987850566711487410e+00 1.021760667883402718e+01 8.459512471107421661e+00 4.850659979497202734e+00 1.018347577846841467e+01 1.201552519288492960e+01 4.918614945042066644e+00 1.009544968406520660e+01 6.873272444669908054e+00 7.969325195291225405e+00 1.004099379066578379e+01 1.024712798736354102e+01 7.865720654256673328e+00 1.002562858552025737e+01 1.359582478761153546e+01 7.812514246253668304e+00 1.013642748561553830e+01 3.496095925225641832e+00 1.926292558612000994e+00 1.595571412140743206e+01 6.723280353370135742e+00 1.960826672323032760e+00 1.584420274676988072e+01 1.015414357812927371e+01 1.902813368362498148e+00 1.590093862910663702e+01 5.132377051641343613e+00 4.990057046522047735e+00 1.583505162242845721e+01 8.498145775750108655e+00 4.939731441643465004e+00 1.588026112078173213e+01 1.201637588733390416e+01 4.833268834267575365e+00 1.587986206138821110e+01 6.865225222119111237e+00 7.916933816582131023e+00 1.580129573590129866e+01 1.019372541197379434e+01 7.976429185387907239e+00 1.586704758640718360e+01 1.370744296277002938e+01 7.914974171784032286e+00 1.580403838392851057e+01 -4.059781056210354233e-02 -1.624562632402673165e-02 5.221564222819209677e-02 3.488465838118349094e+00 -1.414592101076245396e-02 -4.097077133280752764e-02 6.849867670143112264e+00 9.047390790353165846e-02 -3.617538139673315972e-02 1.693335816006365624e+00 2.875402147961077848e+00 4.593175819615252092e-02 5.082964127884599392e+00 3.011027570300968126e+00 1.140148968815257388e-02 8.514578741520125504e+00 2.889434578666657316e+00 -7.317167165834851349e-03 3.335447254351157742e+00 5.958861158450794449e+00 4.700080006057524157e-02 6.862334302126125607e+00 6.008261460571080015e+00 5.160362325484836588e-02 1.031746969800342661e+01 5.819155614786338582e+00 1.343939935372556564e-02 -3.736194185756613884e-02 3.887186847578444349e-02 5.659451884544268729e+00 3.443058085462172180e+00 -8.482851356385145980e-02 5.831612946456340651e+00 6.747945375096646714e+00 7.937757995062622030e-02 5.667371488399537860e+00 1.639780086183295182e+00 2.886905312992360972e+00 5.807493542496588113e+00 5.068180874963441163e+00 2.920541794334417407e+00 5.809175723826424331e+00 8.503265559953238295e+00 2.888495950284521108e+00 5.804579196002037200e+00 3.424403866087037951e+00 5.894685764855128518e+00 5.742900462473102152e+00 6.849048168219145971e+00 5.859404611045238909e+00 5.750379340084853297e+00 1.017802250324949043e+01 5.859001081259662236e+00 5.818471418244812732e+00 -3.256469027654023546e-02 7.251215527001156347e-02 1.141928739764914269e+01 3.469177110558713473e+00 -7.809482275862326961e-02 1.145193377405621860e+01 6.827087325350936098e+00 9.620080071846433267e-02 1.143921397929249828e+01 1.772461528443858736e+00 2.937761923119483143e+00 1.158904152647174435e+01 5.019052507032665034e+00 2.966266935705125896e+00 1.154378092015682711e+01 8.458422725764616956e+00 2.912906671673043402e+00 1.145852652023950213e+01 3.340825756901153021e+00 5.852784962580893868e+00 1.142505992507680723e+01 6.795356670301029745e+00 5.911213351886176248e+00 1.152262236451742972e+01 1.032343555236555233e+01 5.855997867944602753e+00 1.155263209273259584e+01