-1060.563000
-1060.449100
-1060.065300
-1060.530200
-1060.591800
-1060.781000
-1060.585000
-1060.249200
-1060.230400
-1060.620700
-1060.399600
-1060.658700
-1060.776600
-1060.146400
-1059.754900
-1060.547800
-1060.193500
-1060.473600
-1060.205300
-1059.224800
-1059.824500
-1059.891100
-1060.129800
-1060.874000
-1060.508700
-1060.543600
-1060.701500
-1060.075200
-1060.308300
-1060.229700
-1060.180000
-1060.786300
-1060.570400
-1060.845100
-1060.629200
-1060.213200
-1060.544900
-1060.263800
-1059.603300
-1060.051100
-1060.753300
-1060.577300
-1060.612600
-1060.715700
-1060.458000
-1061.179200
-1060.639300
-1060.381800
-1059.982200
-1060.846900
-1060.550200
-1060.048900
-1059.930300
-1060.410900
-1060.737500
-1060.380500
-1059.761600
-1060.494400
-1060.074900
-1060.101500
-1060.698500
-1060.388800
-1059.493800
-1059.843300
-1060.170000
-1060.434600
-1060.478900
-1060.681400
-1060.473900
-1060.952400
-1060.457100
-1060.374700
-1060.390100
-1060.599100
-1060.199700
-1059.595200
-1060.061200
-1059.768300
-1060.124800
-1061.003400
-1060.267400
-1060.285900
-1060.862100
-1060.077400
-1060.610200
-1059.968500
-1060.623600
-1060.985200
-1059.918700
-1060.796800
-1060.770400
-1060.072100
-1060.122000
-1060.671900
-1060.398300
-1060.246300
-1060.240700
-1059.958500
-1060.308200
-1060.681600
-1060.265100
-1060.622900
-1060.595800
-1061.010100
-1060.468700
-1060.137100
-1059.547500
-1060.320300
-1060.098100
-1060.024900
-1060.068800
-1060.170800
-1060.109100
-1060.045900
-1060.468300
-1060.531900
-1059.875700
-1050.125400
-1048.885100
-1046.594500
-1050.848000
-1050.395600
-1049.721800
-1049.682500
-1048.922300
-1048.614400
-1049.684900
-1049.632300
-1048.192000
-1050.944400
-1050.454600
-1050.517100
-1050.951800
-1048.664100
-1050.168800
-1051.237900
-1051.106300
-1051.400300
-1052.388700
-1050.632200
-1048.780600
-1048.732500
-1049.479100
-1051.006700
-1049.127200
-1046.604900
-1050.788800
-1050.091800
-1049.381000
-1049.897300
-1051.192700
-1050.296800
-1051.191200
-1051.770200
-1048.693200
-1048.995500
-1050.696900
-1050.836500
-1052.095300
-1047.663100
-1049.843000
-1049.063900
-1050.848300
-1048.947700
-1046.528500
-1048.048500
-1050.212900
-1049.421000
-1051.101300
-1049.195000
-1051.636500
-1049.558000
-1051.480800
-1050.175100
-1050.538000
-1052.412600
-1051.381300
-1049.024000
-1048.587300
-1051.316200
-1049.851700
-1050.164500
-1051.070200
-1050.435100
-1047.930200
-1048.704200
-1050.442600
-1050.585100
-1050.732800
-1048.250700
-1049.272300
-1051.104000
-1051.486800
-1048.599200
-1049.826200
-1049.703100
-1052.608300
-1050.362300
-1049.595000
-1050.478500
-1050.272500
-1050.086000
-1049.457700
-1051.037700
-1049.996400
-1050.012900
-1050.634100
-1046.575200
-1048.749900
-1049.754900
-1049.788700
-1051.205200
-1052.198800
-1050.653500
-1048.887600
-1049.584800
-1052.129800
-1050.933300
-1051.241100
-1049.905000
-1050.309900
-1049.021400
-1051.348600
-1050.928000
-1050.227700
-1048.354700
-1048.798300
-1050.188600
-1046.158500
-1048.562100
-1048.241100
-1050.701000
-1050.587100
-1050.726300
-1051.480000
-1050.363300
-1049.970600
-1049.565600
-1047.673700
-1049.462800
-1050.686000
-1049.874200
-1049.836400
-1050.740700
-1049.496000
-1050.914300
-1048.421900
-1047.506300
-1050.223300
-1051.544200
-1047.681500
-1047.755800
-1046.665400
-1048.897400
-1047.166300
-1049.252500
-1047.942400
-1049.837900
-1050.764500
-1046.808500
-1045.144600
-1049.996100
-1049.560800
-1048.529400
-1046.809600
-1050.019300
-1047.706600
-1048.714200
-1048.113100
-1045.329000
-1045.510700
-1047.387900
-1052.461800
-1049.727200
-1046.847200
-1048.206900
-1048.794900
-1046.811700
-1050.961800
-1049.138300
-1050.992300
-1048.526700
-1046.897300
-1050.258100
-1046.384700
-1048.249000
-1049.053700
-1048.241400
-1048.949600
-1048.862400
-1049.200000
-1048.671700
-1047.432700
-1048.702500
-1047.200900
-1050.662700
-1049.877900
-1052.216900
-1047.503600
-1048.480800
-1049.134700
-1048.869500
-1049.457700
-1049.291700
-1049.261400
-1046.926700
-1047.471800
-1049.009900
-1050.871200
-1047.261900
-1050.559000
-1045.540700
-1049.142600
-1050.853200
-1049.459100
-1050.433400
-1048.668400
-1050.359100
-1050.984000
-1045.482900
-1048.347200
-1050.038700
-1049.457400
-1049.475400
-1048.414300
-1048.143700
-1046.427700
-1046.116800
-1048.080900
-1050.969000
-1048.710100
-1048.116000
-1049.880400
-1047.188300
-1046.184700
-1048.316500
-1049.449300
-1050.787500
-1048.416700
-1048.648200
-1050.990700
-1049.714700
-1050.012600
-1048.752500
-1047.734900
-1052.631000
-1049.281800
-1048.702400
-1048.615900
-1048.813200
-1048.481800
-1048.392900
-1046.564600
-1048.952500
-1048.398600
-1048.335900
-1048.807900
-1047.020600
-1049.173500
-1048.232400
-1045.834000
-1049.252600
-1047.654600
-1052.322900
-1049.281800
-1050.438100
-1049.516700
-1049.922500
-1050.695000
-1047.873300
-1049.520200
-1048.495800
-1048.118600
-1049.957200
-1046.331600
-1044.404500
-1050.125700
-1049.771300
-1047.849300
-1045.947800
-1049.148900
-1049.204000
-1047.118700
-1051.065500
-1049.644200
-1047.168200
-1046.110500
-1050.907300
-1050.100700
-1049.680100
-1050.196600
-1047.582100
-1048.763500
-1049.377600
-1047.354000
-1048.571900
-1050.115600
-1045.574500
-1048.092100
-1048.874200
-1047.656300
-1049.059600
-1046.053000
-1046.680000
-1049.923600
-1047.881200
-1048.093600
-1050.412900
-1046.471900
-1046.963300
-1048.082200
-1047.816900
-1048.143100
-1047.161300
-1050.564900
-1049.425300
-1049.012800
-1048.974100
-1051.170900
-1045.879700
-1047.716800
-1048.237600
-1048.604300
-1048.039300
-1047.363800
-1048.254200
-1049.582900
-1048.760000
-1046.679600
-1050.635500
-1047.913400
-1043.682400
-1048.585100
-1048.824600
-1044.382600
-1051.320200
-1045.384100
-1045.472500
-1049.438600
-1045.098300
-1048.653600
-1049.436900
-1046.785900
-1047.565100
-1049.661700
-1049.034300
-1048.781400
-1044.228200
-1048.053800
-1047.887600
-1048.937000
-1048.201100
-1049.244600
-1047.534200
-1043.733400
-1048.204300
-1048.980800
-1048.892200
-1045.378500
-1047.484500
-1047.559000
-1048.413200
-1045.470500
-1048.478800
-1049.610900
-1048.827600
-1047.298000
-1050.531000
-1048.176900
-1047.969700
-1048.159300
-1046.497700
-1048.836200
-1050.277400
-1046.141400
-1048.729900
-1047.570700
-1047.425700
-1048.879200
-1048.586800
-1050.075500
-1052.391900
-1050.103000
-1047.866500
-1046.717500
-1045.393200
-1049.198300
-1046.356000
-1047.866500
-1048.277300
-1048.109700
-1050.064000
-1045.245000
-1047.685700
-1043.890200
-1047.699400
-1047.437200
-1044.437300
-1045.801700
-1048.076500
-1043.875700
-1047.215200
-1043.591600
-1047.837900
-1046.241600
-1047.177700
-1047.804500
-1045.526800
-1046.133100
-1048.508600
-1044.367800
-1048.638600
-1046.190000
-1046.795900
-1045.869300
-1046.829900
-1047.524200
-1047.510700
-1047.510600
-1045.554600
-1047.311300
-1049.098100
-1049.168600
-1048.208700
-1042.908800
-1048.133800
-1046.483500
-1043.223400
-1046.202000
-1048.344000
-1048.268000
-1046.210600
-1047.292800
-1047.649000
-1045.656000
-1045.836300
-1047.180300
-1047.796400
-1048.164800
-1046.737700
-1049.001900
-1049.081500
-1047.474700
-1046.561800
-1048.768100
-1046.580500
-1048.036800
-1047.385700
-1042.622500
-1045.410900
-1043.878100
-1048.012200
-1048.145600
