   -0.265791     0.348359    -0.248408     0.847437     0.477643    -0.025853    -0.663925    -1.011286     0.973923     0.233144     0.464822     0.138559    -0.136235    -0.815703    -0.481758     0.288976    -0.403235    -0.564068    -1.188840     0.038478     0.243909     0.287983     0.094363    -0.445889     1.000649     0.601078     0.658769    -0.446650     0.724856     0.117567    -0.058284     0.672577    -0.548204    -0.246975     0.107409    -0.458901     0.219666     0.540764     1.127129    -0.645761    -0.346309     0.020769     0.507465    -0.825538     0.408758     0.069231    -0.397444     0.133552    -0.732313     0.060221     1.136073    -0.251946    -0.900086     0.559730     0.266789     0.346774    -0.865543     0.389682     0.281298    -1.093174     0.126998     0.355809     0.460827     0.266160    -0.123160    -0.384736    -0.626466     0.305105    -0.524241     0.594750     0.296944    -0.700227    -0.351741    -1.326642     0.143624    -0.407144    -0.098435     0.413629     0.545056    -0.294789     0.512224     0.341720     0.564921    -0.613290    -0.771758     0.169528     0.648216    -0.009265     0.198706     1.351982     0.341219    -0.124755    -0.024923     0.458798     1.060797    -0.581828    -0.961035    -0.169703    -0.822584     0.565849    -0.434271    -0.487265     0.467093    -0.510240     0.661283     0.226695    -0.572808     0.846220     0.392477     0.160613     0.065499    -0.720569     0.147344     0.285894    -0.259192    -0.245141     0.258953    -0.230502    -0.029142     1.049025    -0.272658     0.181033     0.088590     0.748435     0.380893     0.971524    -0.605804    -0.271229    -0.392943     0.289855     0.185651    -1.050284     0.113734    -0.641152     1.144176    -0.076586     0.840131     0.849701     0.436772     0.417879     1.261270    -0.596474     0.492983    -1.019913    -0.465828     0.063208    -0.585222    -0.179061    -0.390798     0.992541     0.650618    -0.581117    -0.431816    -0.491807    -0.101917    -0.733186     0.546460    -0.456963     0.679035     0.254603    -0.148856     0.098280     0.707947    -0.856224     0.397540     0.276924     0.573682     0.199663    -1.025825    -0.085969    -0.437062     0.795154    -0.559006     0.237587    -0.310774    -1.215971    -0.202042    -0.419348     2.024438    -1.095192    -0.226452     0.412699     0.323895     1.330636    -0.065960    -0.298856    -1.631987    -0.221690    -0.554238    -0.071329     0.869393    -0.324133     0.389365    -0.551597    -0.228503    -0.208859     1.054121    -0.864874    -1.822726    -0.895071    -0.428011     1.244428    -0.446384     0.044302     0.523310    -0.869818    -0.036502     0.839115     0.772229    -0.084260    -0.157752     0.286185    -0.284751     0.206337    -0.003242    -1.293891    -0.069732     0.520332    -0.888111    -0.274602     0.872333     1.108680     0.472941     0.485430    -0.108376    -0.678255    -0.540124     0.424214     0.000061    -0.696481     0.174556     0.369898     0.254217     0.215075     0.088764     0.555901    -1.039076     0.449050     0.041497    -0.174731    -0.611994    -1.074388     0.000126 
    0.266105     0.408424    -0.391457     0.038272    -0.965462     0.528699    -0.953131    -0.250891     0.757554    -1.707926     1.043030     1.860846    -0.198019    -0.231455     0.377160     0.068516    -0.658121    -0.112318    -0.493718     0.602801     0.053414     0.202211     0.729622    -0.063510     0.831452     0.686662     0.136291    -0.181588     0.416999     0.244647     0.849341    -0.410539    -0.084224    -0.384979    -0.686820    -0.848200     0.284116    -0.164096    -0.337545    -0.055500     0.215165     0.440314    -0.138416     0.401757    -0.932470    -0.194981     0.290950     1.078068     0.390993    -0.803364    -0.233386    -0.238739     0.146046     0.249457    -0.983839     1.178451     0.758586     0.215489     0.763675     0.248099     0.517020    -0.589772     1.306113     0.620682    -0.490395     0.562252     0.047103     0.688265     0.062684    -0.120244     0.032352    -0.595813    -0.635289    -1.061327     0.676102     0.852800    -1.274920     0.772798    -0.522303    -0.630475    -0.426710     0.108755     0.449487     0.337829    -0.524087    -0.294501     0.284565     0.467107    -0.046594    -0.913542    -0.036716     0.231392    -0.671993     0.176116     1.396546    -1.486662    -0.279411    -0.365597    -0.136632     0.281208    -0.434094    -1.190282    -0.250224     0.192986     0.179510    -0.409223    -0.042331    -0.609560    -0.047699     0.352077     0.117223    -0.534862     0.828939     0.244236    -0.166230    -0.516143    -0.271982     0.134147     0.437193     0.303097     0.345762     0.558077    -0.407136    -0.199130     0.601717     0.320554    -0.775444    -0.669584    -1.090600     0.472064    -0.862674     0.267993     0.903885    -0.925289    -1.165384    -0.811176     0.366335    -1.500060    -0.016279     0.050147     0.526996     1.132863    -0.151119    -0.815924    -0.631763    -0.585594    -1.057429     0.262736    -0.055628    -0.882606    -0.362658    -0.993300    -1.251200    -0.296697    -0.201964    -0.030839     0.762071    -0.256506     0.551940    -0.079689    -0.106722     0.096208     0.794639    -1.006521    -0.084235    -0.903603    -1.522672     0.942269     0.179682     0.471816    -0.561420     0.172060    -0.573545     0.585131     2.498891     0.148915    -1.168182    -1.341421     0.144219     0.160602     1.254930     1.123970     0.562024     0.541608     0.905166     0.539947    -1.268914     0.910987     0.037450     0.241957     0.953029     1.042847    -0.541503     0.521550    -0.019169     0.555363     0.086719     0.677137     0.358240    -0.127703     0.267567    -0.561690    -0.153202    -0.306158    -0.035498    -1.570671     1.665377    -1.011536    -0.660201     0.016403     0.440657     0.259926     0.319116     0.748704     0.118395     0.890634     0.268817     1.302711    -0.561677     0.971050     0.400468    -0.715637    -1.257010     0.023070     0.260348     0.112078    -0.599151     0.277806     0.295106    -0.315786    -0.194892    -0.239790     0.212065    -0.332280    -0.424706     0.372993    -0.120337     0.001067    -0.567680    -0.198554     0.149966     0.797317     0.182114 
   -0.644123    -0.222691     0.488043     0.603888     0.554017    -0.982054    -0.029562    -0.618974    -0.106611     0.508219    -0.519173    -0.217240    -0.502500    -0.646260    -1.099387    -0.259711     0.460907    -0.121438     0.282856     0.269578    -1.277315     0.103961    -0.018620     0.246589    -0.530607    -0.094134    -0.888864     0.288326     0.104973     0.746599    -0.257493    -0.085719     0.410019     0.007653    -0.424390     0.452641    -0.072520     0.614528    -0.432752     1.128864     0.518842     1.778808     0.258544     0.071462     0.470188     0.137554     0.352515     1.045199     0.844158    -0.262414     0.776224    -0.190004     0.034387     0.567042     0.188292    -0.411258    -1.218695    -0.346943     0.699695     0.973247     0.825966    -0.413545    -0.324958    -0.352587    -0.861345     0.869038     0.056479     0.393607    -0.570285     0.195169     0.000269     1.415055     0.357179     0.807858     0.097793    -0.839306    -0.295956     0.668593    -0.474596    -1.019907     1.056205     0.755848    -0.649682    -0.323577    -0.728200    -1.072392    -0.715556    -1.126794    -0.306403    -1.443952    -0.722064     0.394624    -0.564515     0.529526     0.774994    -0.070311    -0.576278     0.071890    -0.304189    -0.335046     0.293363    -0.240671    -0.029138     0.370063    -0.247126     0.302042    -0.322163    -0.335246     0.615825    -0.436402    -1.141425    -0.068550     0.039404    -0.368394    -1.072843    -0.888217    -0.045968     0.050513    -0.459276     0.264711     0.394123    -0.364492     0.697139     0.427432     0.882134     0.323663    -0.021500     0.507291     0.620399    -0.495405     0.609713    -0.493465    -0.246338     0.472895    -0.036743     0.087067     0.958686    -0.565904     0.121904     0.648577     0.866766    -0.354989     1.363202    -2.144095     0.334423    -0.294604     0.342816    -0.391355    -0.974739    -0.869947     0.151551    -0.295404    -1.206421    -0.916196    -0.280150    -1.290300     0.854501     0.562945    -0.355837     0.277685     0.179409    -0.390583    -0.285278    -1.713380     2.113028     1.085587     0.706860     1.281081    -0.465171     0.608439     0.888524     0.918617    -0.197263     0.755024     0.175933    -1.137660     0.333347    -1.102178    -0.061197     0.395473     0.457588     0.574388     1.208289    -0.634954     0.029866     1.223835     0.259014     0.211032     1.398697     0.465796    -0.903048    -0.298729    -0.652851    -0.041796    -0.318446     0.088396     0.230700    -0.464186     0.905847     0.849053     1.039785    -0.638604    -0.701745    -0.479335    -0.153955     0.846138     0.041251    -0.296397    -0.163289    -0.183181     0.100162     0.337401    -0.790708    -0.034850    -0.975766    -0.179840     0.133094    -0.268018     0.450330    -0.883580    -0.697482    -0.001665     1.165704     0.258409    -1.207889     0.330949     0.145114     0.933666     0.977500     0.978515    -0.175098    -1.345770    -0.083151    -0.579434     0.147444     0.459405    -1.135659     0.107696    -0.224143     0.040865     0.069360     0.159098    -1.071978 
    0.020603     0.646578     0.681566    -0.035936    -0.547362     0.843335     0.139801     0.595914     0.499793    -0.023844     0.009185    -0.438490     0.166702     0.257635    -0.723329    -0.597140    -0.498391     0.344690    -0.470488    -0.665208    -0.030463     0.167468    -0.837488     0.915293     0.049251     0.764562     0.726924     0.142732    -0.409983     1.038097     0.795552    -0.892361     1.390345    -0.171861    -0.971200     0.572199    -0.420304    -0.435004     0.065270    -0.453329    -0.185478     1.050386     0.310707     0.721383     0.322544     0.910383     0.914035     0.288549     0.249257    -0.416897     0.607559    -0.403965     0.485102    -0.163557    -0.477893     0.514389    -1.122112     0.683875     0.768708    -0.500424     0.155430     0.366702     0.660870     0.699523    -0.258400    -0.416277    -0.513360    -0.521117    -0.156098    -0.304973    -0.571742     0.679080     0.086082    -0.186124     0.221572    -0.339172    -0.403085    -0.050390     0.508215     0.106111    -0.302928     0.571921     0.380910     0.299594     0.676016    -0.844889    -0.488843    -0.694449    -0.529945     0.455551    -0.322234     0.498227     0.000494    -0.065224     0.365271     0.640911    -0.572192     0.375200     0.676929     0.468928    -0.664365    -0.400457     0.312575    -0.163724     0.609357    -0.822671     0.345932     0.320550     0.322474     1.216091    -0.068029    -1.147992    -0.300364    -0.990612     0.414138     1.151133    -0.408470     0.949812    -1.051356    -1.211217     0.413931     0.487974    -0.809693    -1.161241    -0.671441    -0.630807    -0.433923    -0.731920     0.285173     0.144581    -0.086513     0.289395    -0.064096     0.562364    -0.589544    -0.874489     0.948985    -0.929802     0.940393     0.290406    -0.029351     0.575426     0.558844    -0.189344     0.019418    -0.180943     0.895526     0.367145    -0.375080     0.363060    -0.420116     0.531127    -0.031127    -0.280482    -0.326721     0.745484     0.960719    -0.938814    -0.415671    -0.473542    -0.370525     0.643577     0.520151    -0.370421    -0.814059    -0.392948     0.048086     0.007069    -0.621707    -0.559685    -0.614572     0.438299    -0.257681    -0.133399     0.240689     0.875794     0.181055    -0.478376     1.021335    -0.072819     1.299767    -0.501848    -0.780545    -0.323697    -0.575335    -0.681131    -0.854731     0.373766    -1.040988     0.000358    -0.581309    -0.054068    -0.819788     0.660162    -1.246712     0.354162    -0.712956    -0.374823     0.844601     0.673449    -0.708901    -0.828797     1.020907    -0.887456     0.172697     0.783675    -1.278537    -0.387109    -0.337408    -0.686470    -0.644304     0.146509    -0.885972     0.766620    -0.187625    -0.859124     0.875108    -1.023425     0.819266    -0.395290    -0.183597     0.314264    -0.715379    -1.120711     0.364851    -0.433995    -0.994268     0.050850     0.107126    -0.392469     0.606351     0.673736     0.751851     0.878624     0.298429     1.247700     1.846057     0.101730     0.625857     0.428305    -0.475495     0.743317    -0.413753 
    0.204100     0.096002    -0.996276     0.176546    -0.245915    -0.022575    -0.401700    -0.570851    -0.181628     0.578258     0.090553     0.402383    -0.048869     0.413127     0.542650    -0.134044     0.198141     0.289574     1.319669     0.608966     1.511323     0.084022    -0.556196     0.610867     0.562032     0.090603    -0.105351    -0.280289     0.223658    -0.235963     0.599718    -0.794676    -0.906135    -0.522110     0.894860    -0.164318    -1.957027     1.253327     1.835893     1.082646    -0.159053    -0.494077    -0.007922    -0.217112    -0.426084    -0.602345     0.409801     1.383262    -0.311382    -0.441229     0.161514     0.328087     0.087618     0.025718     0.452785    -0.613249     0.627029     0.869622     0.106863     0.001128     0.098534    -0.136664     0.625405     0.266824     0.223553     0.333196    -0.565285     1.090222     1.172427    -0.030815     0.699372     1.365923    -0.549540    -0.004038     0.414397    -0.482793    -0.785261     1.195515     0.635453     0.652707     0.943480    -0.346768     0.200246     0.242561    -0.045629    -0.689160     0.089580    -0.095476    -0.021307     0.446253    -0.206703     0.400430    -1.266312     0.993289    -1.077644    -0.906532     0.342245    -0.073015     0.039001     0.471847     0.919608    -0.633374     0.379095     0.110308     0.935711    -0.597625    -0.434424    -0.536974    -0.270240     0.132665     0.785080     0.517748    -0.893428    -0.962756     0.202659    -0.951203     0.148254    -0.279890     0.551185    -0.153860    -0.386072     0.298637     0.117051     0.634543     0.693721    -0.384576    -0.117009    -0.488249    -0.678867    -0.352833    -0.001230     0.679697    -0.211203     0.643186    -0.180453    -0.879914     0.028951    -1.266337     0.315932    -0.578362    -0.214149     0.145709     0.532773    -0.323279     0.167462     0.391237     0.298673    -0.179894     0.503240    -0.200514    -1.056525    -0.684416    -1.049093     0.143545     0.581224    -0.575537    -0.079392     0.545008    -0.273486    -0.961372     0.257421    -0.955847     1.170335     0.721626     1.059727    -0.932916     0.164289     0.568085    -0.204429     0.026780     0.491695    -0.264998    -0.463227     0.355819     0.690515     0.971013     0.430690     0.018937    -0.063678    -0.147541    -0.384360    -1.288081    -0.113322    -0.460397    -1.098667    -0.157478     0.356773    -0.574773     0.001605     0.341900     0.612669    -0.053301     0.865109     0.423468    -0.211508    -1.076796    -0.096596     0.096118    -0.086891    -0.555371    -0.330380     1.200790    -1.548955    -0.871870     0.215638     0.454039     0.829235    -0.155941    -0.317568    -0.308256    -0.134624    -0.270935     1.129875    -0.390450     0.610974    -0.112477    -0.007202     0.518677    -0.734455     0.192780     1.143952    -1.261961    -0.487773    -0.787265    -0.114485     0.373441    -0.620549    -1.130696    -1.606988    -0.179549     0.208731     1.037456     0.029416    -1.016782    -0.108992    -0.857419     0.086002     0.517471    -0.148308    -0.487606    -0.290091    -0.318494    -1.334660 
   -0.329338     0.797277     0.989561    -0.275070     0.299703     0.730757    -0.416613    -0.042209     0.765538    -0.226612     0.381820    -0.557679     0.840996     0.311347    -0.182308     0.020174    -0.733208     0.015259    -0.300696    -0.239743    -0.391700    -0.060092     0.295511     0.732378    -0.264143    -0.284201     0.236260     0.539304    -0.545601     0.344433     0.718450    -0.736122     1.403004    -0.489329    -0.706252    -0.460809     0.351895    -0.365662     0.576317    -0.624740     0.014092    -0.742182     0.135683    -0.035740     1.047017     0.577439     0.176687     0.893013     0.436321     0.346330    -0.512455    -0.953068    -0.345641     1.147772     0.493654     0.271746     0.623873    -1.136080     0.970952     0.778912     0.280517    -0.199193     0.176880     0.375884    -0.848401    -0.034447    -0.232343    -0.306208     0.087373     0.092786     0.115762     0.725621     0.182140     0.550986    -0.635175    -0.180284    -0.722246     0.725208     0.138910    -0.050781    -0.186599     0.031449     0.578700    -0.694917    -0.130865     0.872281    -0.189775     0.148343    -0.095312    -0.257920    -0.136674     0.362553    -0.255289     0.277955     0.440292     0.458129    -1.123068     0.018224    -2.258352    -0.065826     0.084157     0.576687     0.289808     0.006426     1.039052    -0.716200    -0.316517    -1.317939     0.380497     0.317256     0.691718    -0.919858    -0.563240    -1.232216    -0.179870     0.062404     0.141113    -0.925798     0.359993     0.340517     0.710321     0.765064    -0.233949    -0.002789     0.540341     0.181848    -0.097020    -0.207986     0.239065    -0.055119    -0.574986    -1.135607     0.551666    -0.876960     0.116904    -0.778829    -0.552235     0.163591     0.625055    -0.242676    -0.018466    -0.311986     0.648636    -0.226629    -0.359494     0.732526     0.001124     0.370559     0.000738     0.471441     0.382419    -0.457005     0.343102    -0.200766    -0.266304     0.402274     0.403114     0.802240    -1.220485    -0.245322    -0.507027     0.526757     0.257758    -0.833984    -0.623986     0.122431    -0.631873    -0.763304     0.311020     0.620235    -0.613857     0.496814     0.099972     0.173182    -0.043262     0.401833     0.148448    -0.190568    -0.106725    -0.255015     1.257984    -0.346002    -0.399822    -0.745101     0.249775    -0.366358    -0.503591    -0.519681     0.120632     0.946513     1.366890     0.271403    -0.953567    -0.271566    -0.369513     0.285318     0.384182    -0.137599    -0.623447    -2.011929     0.101504     0.911785     0.193450    -0.349077    -0.526551    -0.636342    -0.397732     1.401628     0.625302     0.233238     0.108368    -0.519776     0.040945    -0.769516     1.146576    -0.356141    -0.641973    -0.175852    -0.302873    -0.062627     0.552011    -0.423633     0.952298    -0.419484     0.004544     0.337409    -0.008887    -0.619142     0.102325     0.333801     0.240137     0.135295     0.465023     0.728957    -0.201420     0.281897    -0.655321    -0.279731    -0.685162     0.189822     0.296956     0.143732    -0.567038 
    0.293388    -0.809796     0.238901    -0.054438    -0.199433    -0.105777     0.587044    -0.361191    -0.224764     0.553405     0.229470     0.849389     0.173628    -0.354838    -0.366589     0.569761    -0.051419    -1.042576    -0.670526    -0.530425    -0.372873     1.309547     1.078708     0.544475    -0.565210    -0.568653    -0.448930     0.126725     0.317331     0.054627    -0.711988     0.662348     0.001664     0.310904    -0.555732    -0.867379     0.621064    -0.381440     0.108926    -1.050883     0.205141    -0.659062     0.114108    -1.034489     0.442802     0.200129    -0.278066    -0.628520    -1.040237     0.129623    -0.516464     1.711447     0.863686     0.873981    -0.442954     0.417277    -0.801127    -0.727004    -0.233236     0.643269     0.279053     0.113081    -0.353715     0.116540     0.263240    -0.043068     0.047638     0.922646     0.550563     0.560223     0.404794    -0.019052     0.156822    -0.428611     0.340216     0.278249    -0.588241    -0.988911    -0.173148    -0.355165    -0.548333     0.307499     0.433196     0.983843    -0.110015     0.108934     0.753316    -0.096314    -0.364093     0.580845    -0.287566     0.240757     0.457428    -0.129974     0.794611    -0.453695     0.456655    -0.259774     0.252877     0.506594    -0.277663     0.414529    -0.097829     0.551134    -0.291457    -0.276374    -0.442726    -0.257105     0.315612     0.374864    -0.384557    -0.755507    -0.820417     0.458085     0.420448    -0.381964     0.770271     0.213530     0.906784    -0.209384    -0.106119     1.923464    -0.641132    -0.250032     1.082311     0.616665     0.083342    -0.866506     0.422716     0.648758    -0.812288    -0.740400    -0.724751    -0.707364    -0.468660    -0.249976    -0.392408     0.278608    -0.675699    -0.266807     0.148860    -0.204940     0.555147     0.361703    -0.546574    -0.584748    -1.348857     0.622701     0.443162     0.017741    -0.272486     0.921503    -0.004384    -0.161306     0.633471     0.628936    -0.828499    -0.529084     0.307615     0.455278    -0.147705     0.458856    -0.145224     0.157757    -0.325228    -0.046161    -0.168431    -0.559678     0.528949     0.162878    -0.026324    -0.435727    -0.108328    -0.415640     0.634766     0.086696     0.086364    -0.119030     0.002231     0.286286    -0.410328     0.980834     0.476345     0.050511     0.200516     0.165492    -0.385400    -0.429083     0.258110    -0.318230     0.505507     0.268349     0.231130    -0.340370    -0.082205     0.070724     0.532253    -0.158456    -0.181466    -0.242812    -0.792047     0.560320    -0.760334     0.256173    -0.579743    -0.039998     0.089521    -1.025432    -0.186572    -0.145239     1.538220    -0.387772     0.556118    -0.857798     0.195253    -1.114569     0.182353     1.477923     0.414368    -1.445259     0.597581     1.072818     1.267256     0.458977    -0.518518    -0.412783    -1.019593     0.651032    -0.032861     0.373676    -0.544225     0.353658    -1.101473     0.528456     0.455799    -0.577423    -0.437968     0.194268    -0.554404    -0.317281    -0.502256    -0.807894     0.553012 
    0.001132    -0.238999     0.625702    -0.720854     0.226031    -0.252647     0.245309     0.825941     0.251295     0.986700     0.597280     0.043557    -0.360785    -0.168221    -0.298246    -0.332591    -0.501974     0.774893    -0.743245    -0.436818     1.389357     0.414211     0.024244    -0.394121     0.760071    -0.762878     0.041611     0.427968    -0.036904     0.158315    -0.439027    -0.275185     0.034774     0.538341    -0.444534    -0.132586    -0.361088    -0.924649     0.466828    -0.339815    -0.238554     0.707348    -0.323033    -0.108484    -0.931516     1.456229     0.760354     1.585547     0.864958     0.340822     0.639459    -0.193538     0.134182    -1.128094    -0.427587    -0.012602     0.321864     0.023569    -1.306857     1.091576    -0.672619     0.329664     0.243374    -0.662187    -0.160014    -0.149837     0.240523    -0.487932     0.920344     0.754482     0.045584     0.473788    -0.414068     0.799766     0.970568     0.815753     0.921042     0.294994     0.662159     0.366692     1.048483    -1.095354    -0.566377    -1.147887     0.864038    -0.096710    -0.177984     0.529633     0.386777     0.635522    -0.209315     0.952736    -0.599222     0.214140     0.189231    -0.826203    -0.608439    -0.131177     0.397771    -0.738159     0.118800    -0.624882     0.596258    -0.009375    -0.039787     0.015961    -0.126447    -0.366438     0.215119     0.565143     0.688799     0.672291    -0.491326    -0.953460    -0.570200    -0.016205     0.207375    -0.687092    -0.135451     0.554384    -0.247257    -0.383779    -1.218588    -0.421163    -0.432599    -1.657736     0.297637    -0.075604     0.166681     0.471892     0.247430     0.228847    -0.006636     0.038069     0.485090    -0.375407     0.020998     0.204029     0.493369     0.454671    -0.667958     0.085089     0.787767    -0.431724    -0.790186     0.626971     0.172788     0.911031    -0.912822     0.530216    -0.525736     0.512221    -1.296065     0.233097     0.636480     0.166356     0.224017    -0.063829     0.261781    -0.240290    -1.063117    -1.095800     0.431117    -0.061084    -0.182042     0.185690    -1.076835    -0.035173    -0.943443    -0.473889     0.117255    -0.577192    -0.724100    -0.314901     0.886757     0.050172     0.971267    -0.686595     0.507657    -0.377666     0.530120     0.375267     0.468662     0.950161    -0.407609    -0.284291    -1.147154     1.199928    -0.608494     0.195452     0.735956    -0.553739     0.509045    -0.481045     0.866079    -1.091768    -0.566787     0.529253    -1.062330     1.221497    -0.171390     0.098730     0.105693     1.295125     0.983714     0.178390     0.149774    -1.389632    -0.309500    -1.115402    -0.419770    -0.269859    -0.308629     1.137509    -0.371054     0.719286     0.367190    -0.122922    -0.539824    -0.880275     0.120112    -0.351264     0.693241    -0.610715    -0.558451     0.733690    -1.455546     0.304883    -1.005093     1.740606    -1.215840    -0.178973    -0.293615    -0.303237     1.474339     0.142773    -0.003017    -0.183718    -0.171145    -1.159731    -1.120115     0.718182     0.268971 
   -0.863369    -0.395387     0.256724     0.408919     0.869759     0.562080     0.153728     0.309418    -0.948688     0.270430     0.663846     0.240223     0.392555    -0.207582    -0.392288    -0.702059    -0.134974    -0.179434    -0.322519    -0.487219     0.398710    -0.616040    -0.884203     0.895495    -0.260568     0.414586    -0.243815    -0.208042     0.199653    -0.592034    -0.574988     0.378035     1.071917    -0.132057    -0.275486    -0.781002     0.081679     0.038524    -0.517752    -0.682780    -0.722279    -0.600478    -0.145060     0.438688    -0.332615    -1.347043    -0.265507     1.210169     0.600939     0.487092     0.079796     0.170795    -0.883935     0.442861    -0.460296    -0.284930    -0.665597    -0.311178    -0.284021    -0.169285     0.492965     0.781894    -0.792937    -0.688411    -0.737112     0.708354     0.568954    -0.307683     0.320596     0.276281    -0.513791    -0.225547    -0.334059     0.612512     1.074295    -0.515598    -0.051500    -0.675168    -0.459719     0.100004     0.091506    -0.123078    -0.280836    -0.272275     0.634792     0.985771    -0.855172     0.432856     0.617889     0.521043     0.285209     0.890420    -1.038950     0.645353    -0.453619    -0.679101    -0.256416     0.285892     0.191784     0.812306    -0.303972    -1.762362     0.463294    -0.698643    -1.213298     0.386428    -0.908514    -1.280636     0.085083     0.190237     0.255218     0.627752     0.983238    -0.706661    -0.364085     0.835531     0.749105     1.331389    -0.089713    -1.839668     0.294440    -0.602572     0.462801    -0.472449     0.163024    -0.070242     0.354389    -0.433085    -0.281998    -0.019971    -0.723114     0.157156     0.350465     0.363968     0.841426    -0.285493     0.787773    -0.406170    -0.192841     0.208692     0.691766     0.197546    -0.429354    -0.657653     0.643654    -0.682503     0.566419    -0.668594     0.143973    -1.233100     0.445660     0.516237     0.783967     0.036776     0.151666    -0.172022     0.462588    -0.073604    -0.012716     0.442649    -0.352370    -0.197494     0.022268     0.605707     0.469426    -0.462206    -0.112075    -0.813712     0.590185    -0.345134     0.140416     0.708091     0.119440    -0.477564    -0.792144    -0.203783    -0.578455    -0.167871    -1.269869     1.312562    -1.127736    -0.421299    -0.180794     0.297319     0.358181    -0.017120     1.385813     0.859334     0.104065    -0.668804     1.613031     1.072491    -0.388369     0.145639     0.915628    -0.145180     0.135881     1.088282     0.202716    -0.641448     0.340111    -0.166182     0.173505     1.303509     0.048677     0.138114     0.639720     0.041600    -0.334132     0.668348     1.031267    -1.186430     0.125906    -1.028152     0.362900     0.256373    -1.017636     0.260393     0.380153     0.856982     1.163293     0.672630     0.029272    -0.732693     0.198288     0.635194    -1.329233     0.180677    -0.462344    -1.424976     0.198971    -0.165557    -0.269571    -0.217889    -1.136286     1.609422    -0.167896     0.370173    -0.220545    -0.167966     0.165750     0.995533    -0.223415 