3.413653100116038619e+00 0.000000000000000000e+00 0.000000000000000000e+00 1.700751627383418452e+00 2.947298177628690397e+00 0.000000000000000000e+00 0.000000000000000000e+00 0.000000000000000000e+00 5.783543584982380636e+00
3.412302582898631531e+00 0.000000000000000000e+00 0.000000000000000000e+00 1.704251698444590124e+00 2.951893462466696594e+00 0.000000000000000000e+00 0.000000000000000000e+00 0.000000000000000000e+00 5.753097679684775478e+00
3.414637040744368690e+00 0.000000000000000000e+00 0.000000000000000000e+00 1.704724541270578264e+00 2.955237683317671227e+00 0.000000000000000000e+00 0.000000000000000000e+00 0.000000000000000000e+00 5.797715790831675875e+00
3.418232372554328435e+00 0.000000000000000000e+00 0.000000000000000000e+00 1.707696645461297624e+00 2.954746313498947341e+00 0.000000000000000000e+00 0.000000000000000000e+00 0.000000000000000000e+00 5.735465397379889474e+00
3.419900901748367694e+00 0.000000000000000000e+00 0.000000000000000000e+00 1.706900531424548229e+00 2.946510978728509755e+00 0.000000000000000000e+00 0.000000000000000000e+00 0.000000000000000000e+00 5.755533588811022838e+00
3.410679490715736950e+00 0.000000000000000000e+00 0.000000000000000000e+00 1.706742729408867509e+00 2.959977280305321035e+00 0.000000000000000000e+00 0.000000000000000000e+00 0.000000000000000000e+00 5.804342088138314537e+00
3.409761431944678289e+00 0.000000000000000000e+00 0.000000000000000000e+00 1.705668109354861572e+00 2.945875313117514160e+00 0.000000000000000000e+00 0.000000000000000000e+00 0.000000000000000000e+00 5.797959996166457408e+00
3.408506936585657510e+00 0.000000000000000000e+00 0.000000000000000000e+00 1.704748003852260663e+00 2.955237215200865908e+00 0.000000000000000000e+00 0.000000000000000000e+00 0.000000000000000000e+00 5.805787372112034106e+00
3.401808936751267609e+00 0.000000000000000000e+00 0.000000000000000000e+00 1.700676810562574692e+00 2.945204297113050540e+00 0.000000000000000000e+00 0.000000000000000000e+00 0.000000000000000000e+00 5.775379600724249940e+00
3.419995388367786493e+00 0.000000000000000000e+00 0.000000000000000000e+00 1.705445831877533180e+00 2.952156263268857828e+00 0.000000000000000000e+00 0.000000000000000000e+00 0.000000000000000000e+00 5.801959294609669193e+00
3.402230572761198335e+00 0.000000000000000000e+00 0.000000000000000000e+00 1.700857624748119523e+00 2.956561560694615398e+00 0.000000000000000000e+00 0.000000000000000000e+00 0.000000000000000000e+00 5.764548186330972435e+00
3.408582339211111645e+00 0.000000000000000000e+00 0.000000000000000000e+00 1.707905879854374920e+00 2.962478204052874098e+00 0.000000000000000000e+00 0.000000000000000000e+00 0.000000000000000000e+00 5.780857297116541282e+00
3.405739184485365723e+00 0.000000000000000000e+00 0.000000000000000000e+00 1.709490834459808761e+00 2.959648685057146622e+00 0.000000000000000000e+00 0.000000000000000000e+00 0.000000000000000000e+00 5.722255713002385669e+00
3.410096214394772840e+00 0.000000000000000000e+00 0.000000000000000000e+00 1.702554181727128357e+00 2.950172403997202597e+00 0.000000000000000000e+00 0.000000000000000000e+00 0.000000000000000000e+00 5.825003970351848359e+00
3.415130282330957723e+00 0.000000000000000000e+00 0.000000000000000000e+00 1.705046161544381933e+00 2.958824636605827951e+00 0.000000000000000000e+00 0.000000000000000000e+00 0.000000000000000000e+00 5.778283283225472466e+00
3.407094554984797075e+00 0.000000000000000000e+00 0.000000000000000000e+00 1.706880049149628764e+00 2.961841347083812082e+00 0.000000000000000000e+00 0.000000000000000000e+00 0.000000000000000000e+00 5.793961324803630575e+00
3.402191755799197193e+00 0.000000000000000000e+00 0.000000000000000000e+00 1.705435303834851091e+00 2.951134462822701643e+00 0.000000000000000000e+00 0.000000000000000000e+00 0.000000000000000000e+00 5.823807762892622364e+00
3.418994422282510826e+00 0.000000000000000000e+00 0.000000000000000000e+00 1.701226524017188657e+00 2.946612080098327535e+00 0.000000000000000000e+00 0.000000000000000000e+00 0.000000000000000000e+00 5.765173286257843976e+00
3.418218016916305668e+00 0.000000000000000000e+00 0.000000000000000000e+00 1.707762106527308754e+00 2.956999354819010328e+00 0.000000000000000000e+00 0.000000000000000000e+00 0.000000000000000000e+00 5.826758810769362640e+00
3.401254190921016551e+00 0.000000000000000000e+00 0.000000000000000000e+00 1.708023999837911644e+00 2.954555321897289311e+00 0.000000000000000000e+00 0.000000000000000000e+00 0.000000000000000000e+00 5.792657838014199534e+00
3.413211281340374104e+00 0.000000000000000000e+00 0.000000000000000000e+00 1.705063474721252970e+00 2.956299201491125128e+00 0.000000000000000000e+00 0.000000000000000000e+00 0.000000000000000000e+00 5.765919716680960150e+00
3.411682811512430913e+00 0.000000000000000000e+00 0.000000000000000000e+00 1.707793053180910459e+00 2.951922837366633079e+00 0.000000000000000000e+00 0.000000000000000000e+00 0.000000000000000000e+00 5.734479383045822942e+00
3.410472421939331422e+00 0.000000000000000000e+00 0.000000000000000000e+00 1.708621883914019257e+00 2.954339023100807538e+00 0.000000000000000000e+00 0.000000000000000000e+00 0.000000000000000000e+00 5.738358669564651571e+00
3.407524826859844147e+00 0.000000000000000000e+00 0.000000000000000000e+00 1.703273659603227630e+00 2.951376629094041526e+00 0.000000000000000000e+00 0.000000000000000000e+00 0.000000000000000000e+00 5.777797644734464555e+00
3.411758321879702738e+00 0.000000000000000000e+00 0.000000000000000000e+00 1.704541323439216827e+00 2.951316834538764589e+00 0.000000000000000000e+00 0.000000000000000000e+00 0.000000000000000000e+00 5.735666304820027150e+00
3.415452370890581513e+00 0.000000000000000000e+00 0.000000000000000000e+00 1.706683681310037226e+00 2.957656451049974766e+00 0.000000000000000000e+00 0.000000000000000000e+00 0.000000000000000000e+00 5.807858397635425440e+00
3.419689994895652063e+00 0.000000000000000000e+00 0.000000000000000000e+00 1.705584819382859996e+00 2.960278987558206509e+00 0.000000000000000000e+00 0.000000000000000000e+00 0.000000000000000000e+00 5.827185069783615390e+00
3.413625808774819248e+00 0.000000000000000000e+00 0.000000000000000000e+00 1.702413259770597431e+00 2.961538016866069434e+00 0.000000000000000000e+00 0.000000000000000000e+00 0.000000000000000000e+00 5.807263553830024350e+00
3.412158718665241341e+00 0.000000000000000000e+00 0.000000000000000000e+00 1.708895572740403601e+00 2.960123654162534645e+00 0.000000000000000000e+00 0.000000000000000000e+00 0.000000000000000000e+00 5.760256974260283158e+00
3.418360939991999192e+00 0.000000000000000000e+00 0.000000000000000000e+00 1.706968553083039852e+00 2.954809723347123107e+00 0.000000000000000000e+00 0.000000000000000000e+00 0.000000000000000000e+00 5.827181119926234665e+00
3.411366354981681948e+00 0.000000000000000000e+00 0.000000000000000000e+00 1.705819938061250207e+00 2.962126806936442147e+00 0.000000000000000000e+00 0.000000000000000000e+00 0.000000000000000000e+00 5.763928016169035828e+00
3.406578193274039545e+00 0.000000000000000000e+00 0.000000000000000000e+00 1.710606121378531519e+00 2.948570536914155049e+00 0.000000000000000000e+00 0.000000000000000000e+00 0.000000000000000000e+00 5.793933455022762580e+00
3.406304974957062637e+00 0.000000000000000000e+00 0.000000000000000000e+00 1.706347473529327141e+00 2.953056657783149408e+00 0.000000000000000000e+00 0.000000000000000000e+00 0.000000000000000000e+00 5.748406217314947497e+00
3.404977006187490218e+00 0.000000000000000000e+00 0.000000000000000000e+00 1.709986358996455014e+00 2.956939180617454088e+00 0.000000000000000000e+00 0.000000000000000000e+00 0.000000000000000000e+00 5.772409253136228990e+00
3.401039121271693499e+00 0.000000000000000000e+00 0.000000000000000000e+00 1.708760613467648959e+00 2.946634208535144239e+00 0.000000000000000000e+00 0.000000000000000000e+00 0.000000000000000000e+00 5.798436031127309320e+00
3.409921849479947031e+00 0.000000000000000000e+00 0.000000000000000000e+00 1.703922838055048405e+00 2.951068759593627355e+00 0.000000000000000000e+00 0.000000000000000000e+00 0.000000000000000000e+00 5.715032779155733600e+00
3.403300215661400507e+00 0.000000000000000000e+00 0.000000000000000000e+00 1.707072185188495350e+00 2.946431089693803074e+00 0.000000000000000000e+00 0.000000000000000000e+00 0.000000000000000000e+00 5.824416652774824676e+00
3.420993034174534930e+00 0.000000000000000000e+00 0.000000000000000000e+00 1.707243954933367780e+00 2.955715348434273970e+00 0.000000000000000000e+00 0.000000000000000000e+00 0.000000000000000000e+00 5.822551610961363089e+00
3.417197842875788094e+00 0.000000000000000000e+00 0.000000000000000000e+00 1.701385323607510491e+00 2.960341299337978960e+00 0.000000000000000000e+00 0.000000000000000000e+00 0.000000000000000000e+00 5.746240742692182657e+00
3.404709459825510542e+00 0.000000000000000000e+00 0.000000000000000000e+00 1.700639059614498239e+00 2.952760184383973030e+00 0.000000000000000000e+00 0.000000000000000000e+00 0.000000000000000000e+00 5.734661387288197965e+00
3.411015623692188470e+00 0.000000000000000000e+00 0.000000000000000000e+00 1.704141593262224585e+00 2.950025585839557429e+00 0.000000000000000000e+00 0.000000000000000000e+00 0.000000000000000000e+00 5.813637620099949999e+00
3.414396896682202254e+00 0.000000000000000000e+00 0.000000000000000000e+00 1.703506725156261448e+00 2.959854050417712212e+00 0.000000000000000000e+00 0.000000000000000000e+00 0.000000000000000000e+00 5.717004821396181491e+00
3.418832263390020110e+00 0.000000000000000000e+00 0.000000000000000000e+00 1.705533912554331843e+00 2.954362933651724088e+00 0.000000000000000000e+00 0.000000000000000000e+00 0.000000000000000000e+00 5.780553706206351450e+00
3.412185316974034155e+00 0.000000000000000000e+00 0.000000000000000000e+00 1.709437505355485776e+00 2.953837242400605856e+00 0.000000000000000000e+00 0.000000000000000000e+00 0.000000000000000000e+00 5.760753975197611787e+00
3.405045736572801296e+00 0.000000000000000000e+00 0.000000000000000000e+00 1.702241040019578433e+00 2.945225800943424233e+00 0.000000000000000000e+00 0.000000000000000000e+00 0.000000000000000000e+00 5.750956991313624478e+00
3.410333693098233088e+00 0.000000000000000000e+00 0.000000000000000000e+00 1.701836254195412179e+00 2.957328423703712073e+00 0.000000000000000000e+00 0.000000000000000000e+00 0.000000000000000000e+00 5.762979197093776484e+00
3.418859783043344258e+00 0.000000000000000000e+00 0.000000000000000000e+00 1.709781911530845910e+00 2.953157344076786650e+00 0.000000000000000000e+00 0.000000000000000000e+00 0.000000000000000000e+00 5.736874597808560239e+00
3.403632726144479648e+00 0.000000000000000000e+00 0.000000000000000000e+00 1.708091467368510141e+00 2.956228396716382267e+00 0.000000000000000000e+00 0.000000000000000000e+00 0.000000000000000000e+00 5.827064611804520844e+00
3.401512472182824709e+00 0.000000000000000000e+00 0.000000000000000000e+00 1.703632009129823155e+00 2.953643545841515117e+00 0.000000000000000000e+00 0.000000000000000000e+00 0.000000000000000000e+00 5.793608906006872949e+00
3.406951301270909838e+00 0.000000000000000000e+00 0.000000000000000000e+00 1.709535491347904834e+00 2.952047840060966877e+00 0.000000000000000000e+00 0.000000000000000000e+00 0.000000000000000000e+00 5.787945555231824635e+00
3.405195406664658808e+00 0.000000000000000000e+00 0.000000000000000000e+00 1.710577050773399721e+00 2.946564239445637501e+00 0.000000000000000000e+00 0.000000000000000000e+00 0.000000000000000000e+00 5.752107195481146462e+00
3.417965961130992714e+00 0.000000000000000000e+00 0.000000000000000000e+00 1.706951208043851365e+00 2.961055725996105892e+00 0.000000000000000000e+00 0.000000000000000000e+00 0.000000000000000000e+00 5.723875728535468888e+00
3.412770951374607620e+00 0.000000000000000000e+00 0.000000000000000000e+00 1.710226901408647082e+00 2.949763067815132533e+00 0.000000000000000000e+00 0.000000000000000000e+00 0.000000000000000000e+00 5.751573414547992869e+00
3.416654171127462725e+00 0.000000000000000000e+00 0.000000000000000000e+00 1.701491213971929151e+00 2.952942849981870399e+00 0.000000000000000000e+00 0.000000000000000000e+00 0.000000000000000000e+00 5.731447898494241855e+00
3.403603099155233291e+00 0.000000000000000000e+00 0.000000000000000000e+00 1.708748696832407266e+00 2.951764801328554011e+00 0.000000000000000000e+00 0.000000000000000000e+00 0.000000000000000000e+00 5.791157210069459715e+00
3.405567722813427789e+00 0.000000000000000000e+00 0.000000000000000000e+00 1.709497185688674259e+00 2.947225930771145475e+00 0.000000000000000000e+00 0.000000000000000000e+00 0.000000000000000000e+00 5.828848338952687058e+00
3.406643933495192123e+00 0.000000000000000000e+00 0.000000000000000000e+00 1.702758109915077478e+00 2.946422748656168711e+00 0.000000000000000000e+00 0.000000000000000000e+00 0.000000000000000000e+00 5.715669099446121670e+00
3.413638852271024593e+00 0.000000000000000000e+00 0.000000000000000000e+00 1.706102493247835916e+00 2.956781299159768839e+00 0.000000000000000000e+00 0.000000000000000000e+00 0.000000000000000000e+00 5.751017147044764855e+00
3.404169332545050608e+00 0.000000000000000000e+00 0.000000000000000000e+00 1.707775182995305396e+00 2.948074771978978603e+00 0.000000000000000000e+00 0.000000000000000000e+00 0.000000000000000000e+00 5.781411233573682473e+00
3.407293835859185549e+00 0.000000000000000000e+00 0.000000000000000000e+00 1.707625471628567482e+00 2.947063124995453975e+00 0.000000000000000000e+00 0.000000000000000000e+00 0.000000000000000000e+00 5.723423294750144663e+00
3.409795440403082800e+00 0.000000000000000000e+00 0.000000000000000000e+00 1.704140003637437450e+00 2.946548371047659653e+00 0.000000000000000000e+00 0.000000000000000000e+00 0.000000000000000000e+00 5.769199381708643770e+00
3.409940090069320640e+00 0.000000000000000000e+00 0.000000000000000000e+00 1.700507383823038010e+00 2.954183234076521281e+00 0.000000000000000000e+00 0.000000000000000000e+00 0.000000000000000000e+00 5.785184964790687445e+00
3.401987163828393612e+00 0.000000000000000000e+00 0.000000000000000000e+00 1.701004809322339328e+00 2.952902824511550062e+00 0.000000000000000000e+00 0.000000000000000000e+00 0.000000000000000000e+00 5.750848364894908471e+00
3.418686245858117090e+00 0.000000000000000000e+00 0.000000000000000000e+00 1.706263287489866665e+00 2.947029183175637002e+00 0.000000000000000000e+00 0.000000000000000000e+00 0.000000000000000000e+00 5.728393060634489053e+00
3.413807267163555093e+00 0.000000000000000000e+00 0.000000000000000000e+00 1.706741937418525090e+00 2.958304910250528330e+00 0.000000000000000000e+00 0.000000000000000000e+00 0.000000000000000000e+00 5.746290622429727435e+00
3.414247738436730462e+00 0.000000000000000000e+00 0.000000000000000000e+00 1.710065701669214011e+00 2.947403849602359571e+00 0.000000000000000000e+00 0.000000000000000000e+00 0.000000000000000000e+00 5.801543251751570374e+00
3.406957430864723690e+00 0.000000000000000000e+00 0.000000000000000000e+00 1.703149471162092032e+00 2.953327418918940239e+00 0.000000000000000000e+00 0.000000000000000000e+00 0.000000000000000000e+00 5.767871471488602353e+00
3.405600245221756417e+00 0.000000000000000000e+00 0.000000000000000000e+00 1.701312010276826436e+00 2.957852893971103292e+00 0.000000000000000000e+00 0.000000000000000000e+00 0.000000000000000000e+00 5.753897257178872238e+00
3.403454975071773525e+00 0.000000000000000000e+00 0.000000000000000000e+00 1.703777143278336403e+00 2.947060754920784564e+00 0.000000000000000000e+00 0.000000000000000000e+00 0.000000000000000000e+00 5.802819325937082162e+00
3.407414828008256347e+00 0.000000000000000000e+00 0.000000000000000000e+00 1.705584060192563367e+00 2.952744873445579898e+00 0.000000000000000000e+00 0.000000000000000000e+00 0.000000000000000000e+00 5.727895573874217661e+00
3.407428424970212255e+00 0.000000000000000000e+00 0.000000000000000000e+00 1.705120293608091808e+00 2.945609731704873724e+00 0.000000000000000000e+00 0.000000000000000000e+00 0.000000000000000000e+00 5.805603142684798712e+00
3.411970248818307905e+00 0.000000000000000000e+00 0.000000000000000000e+00 1.702844864461592556e+00 2.956458797563415342e+00 0.000000000000000000e+00 0.000000000000000000e+00 0.000000000000000000e+00 5.747868755325098000e+00
3.417489474180256614e+00 0.000000000000000000e+00 0.000000000000000000e+00 1.708447230338650646e+00 2.958912578703353446e+00 0.000000000000000000e+00 0.000000000000000000e+00 0.000000000000000000e+00 5.772389374746092372e+00
3.405666509204536840e+00 0.000000000000000000e+00 0.000000000000000000e+00 1.705355518010110094e+00 2.960539626204176766e+00 0.000000000000000000e+00 0.000000000000000000e+00 0.000000000000000000e+00 5.811018217822003784e+00
3.405696595353371769e+00 0.000000000000000000e+00 0.000000000000000000e+00 1.704108993515791814e+00 2.959807342060367219e+00 0.000000000000000000e+00 0.000000000000000000e+00 0.000000000000000000e+00 5.789600737765472793e+00
3.403469821033966447e+00 0.000000000000000000e+00 0.000000000000000000e+00 1.707072167715864230e+00 2.959089726386963992e+00 0.000000000000000000e+00 0.000000000000000000e+00 0.000000000000000000e+00 5.751169373393370421e+00
3.412917715361182047e+00 0.000000000000000000e+00 0.000000000000000000e+00 1.709177222194029122e+00 2.952696763871534902e+00 0.000000000000000000e+00 0.000000000000000000e+00 0.000000000000000000e+00 5.822534457024558741e+00
3.401781339836437823e+00 0.000000000000000000e+00 0.000000000000000000e+00 1.709701584729746315e+00 2.957903250145043739e+00 0.000000000000000000e+00 0.000000000000000000e+00 0.000000000000000000e+00 5.769391146442416130e+00
3.418910811664172655e+00 0.000000000000000000e+00 0.000000000000000000e+00 1.701050798068520109e+00 2.947767885152003053e+00 0.000000000000000000e+00 0.000000000000000000e+00 0.000000000000000000e+00 5.781973091312125668e+00
3.404918419327650714e+00 0.000000000000000000e+00 0.000000000000000000e+00 1.701306537821288156e+00 2.961438513153435093e+00 0.000000000000000000e+00 0.000000000000000000e+00 0.000000000000000000e+00 5.798010931620065200e+00
3.403704023035810433e+00 0.000000000000000000e+00 0.000000000000000000e+00 1.701501873755868033e+00 2.954519895915070915e+00 0.000000000000000000e+00 0.000000000000000000e+00 0.000000000000000000e+00 5.777210142857232889e+00
3.401488679210143751e+00 0.000000000000000000e+00 0.000000000000000000e+00 1.706587553409655289e+00 2.955440561815333211e+00 0.000000000000000000e+00 0.000000000000000000e+00 0.000000000000000000e+00 5.747944529089346943e+00
3.406284321189128494e+00 0.000000000000000000e+00 0.000000000000000000e+00 1.703029147921266473e+00 2.958099831167322336e+00 0.000000000000000000e+00 0.000000000000000000e+00 0.000000000000000000e+00 5.760929166688207204e+00
3.413921716197049427e+00 0.000000000000000000e+00 0.000000000000000000e+00 1.700524396141270600e+00 2.959967226063623169e+00 0.000000000000000000e+00 0.000000000000000000e+00 0.000000000000000000e+00 5.726294884971054877e+00
3.420121037386694152e+00 0.000000000000000000e+00 0.000000000000000000e+00 1.704655364385325278e+00 2.954478765532218887e+00 0.000000000000000000e+00 0.000000000000000000e+00 0.000000000000000000e+00 5.752166339858725053e+00
3.414561747924319768e+00 0.000000000000000000e+00 0.000000000000000000e+00 1.704330228134009362e+00 2.949775082451224328e+00 0.000000000000000000e+00 0.000000000000000000e+00 0.000000000000000000e+00 5.784947984086462824e+00
3.408905423443679972e+00 0.000000000000000000e+00 0.000000000000000000e+00 1.709019431990195237e+00 2.958070308529471060e+00 0.000000000000000000e+00 0.000000000000000000e+00 0.000000000000000000e+00 5.748055937182821040e+00
3.412244209281229068e+00 0.000000000000000000e+00 0.000000000000000000e+00 1.706519029571888391e+00 2.952994523877080280e+00 0.000000000000000000e+00 0.000000000000000000e+00 0.000000000000000000e+00 5.762956218787889995e+00
3.403574491548132297e+00 0.000000000000000000e+00 0.000000000000000000e+00 1.703123238800703820e+00 2.961345163080076670e+00 0.000000000000000000e+00 0.000000000000000000e+00 0.000000000000000000e+00 5.715489168964225541e+00
3.421021144360727906e+00 0.000000000000000000e+00 0.000000000000000000e+00 1.705215486913003842e+00 2.956564520507677152e+00 0.000000000000000000e+00 0.000000000000000000e+00 0.000000000000000000e+00 5.728595299928546325e+00
3.409320381877439576e+00 0.000000000000000000e+00 0.000000000000000000e+00 1.710092800099737298e+00 2.957683033460617228e+00 0.000000000000000000e+00 0.000000000000000000e+00 0.000000000000000000e+00 5.819863782197857383e+00
3.413983577561608307e+00 0.000000000000000000e+00 0.000000000000000000e+00 1.709435113263262140e+00 2.961096961752783141e+00 0.000000000000000000e+00 0.000000000000000000e+00 0.000000000000000000e+00 5.783513289482709041e+00
3.407376911242966600e+00 0.000000000000000000e+00 0.000000000000000000e+00 1.705067540535644799e+00 2.962720169239160040e+00 0.000000000000000000e+00 0.000000000000000000e+00 0.000000000000000000e+00 5.800043202066044401e+00
3.403446831757360069e+00 0.000000000000000000e+00 0.000000000000000000e+00 1.705781433503925415e+00 2.960075748273246710e+00 0.000000000000000000e+00 0.000000000000000000e+00 0.000000000000000000e+00 5.805367673273529761e+00
3.401463314884831224e+00 0.000000000000000000e+00 0.000000000000000000e+00 1.709564698526091941e+00 2.960858667477633155e+00 0.000000000000000000e+00 0.000000000000000000e+00 0.000000000000000000e+00 5.760455600373860285e+00
3.405169606523594350e+00 0.000000000000000000e+00 0.000000000000000000e+00 1.706933967290574339e+00 2.960023469883388714e+00 0.000000000000000000e+00 0.000000000000000000e+00 0.000000000000000000e+00 5.720116298157789991e+00
3.408361246485137830e+00 0.000000000000000000e+00 0.000000000000000000e+00 1.704894668807249491e+00 2.951165502302467214e+00 0.000000000000000000e+00 0.000000000000000000e+00 0.000000000000000000e+00 5.758809517953755730e+00
3.409048737233266291e+00 0.000000000000000000e+00 0.000000000000000000e+00 1.704327213709762256e+00 2.945572783982306042e+00 0.000000000000000000e+00 0.000000000000000000e+00 0.000000000000000000e+00 5.794962752828348052e+00
3.415517839432836045e+00 0.000000000000000000e+00 0.000000000000000000e+00 1.707171856560777190e+00 2.945408294123373683e+00 0.000000000000000000e+00 0.000000000000000000e+00 0.000000000000000000e+00 5.739368201092465149e+00
3.419281939130933701e+00 0.000000000000000000e+00 0.000000000000000000e+00 1.700937131046598605e+00 2.959311166017510875e+00 0.000000000000000000e+00 0.000000000000000000e+00 0.000000000000000000e+00 5.729668220448430382e+00
3.407911778667649383e+00 0.000000000000000000e+00 0.000000000000000000e+00 1.700855671814868630e+00 2.961194314004945483e+00 0.000000000000000000e+00 0.000000000000000000e+00 0.000000000000000000e+00 5.769072521535705711e+00
3.405790811061061074e+00 0.000000000000000000e+00 0.000000000000000000e+00 1.709586048794711877e+00 2.962796766768859946e+00 0.000000000000000000e+00 0.000000000000000000e+00 0.000000000000000000e+00 5.802454569067798218e+00
3.413712899588576821e+00 0.000000000000000000e+00 0.000000000000000000e+00 1.710429590965014013e+00 2.960823308077161986e+00 0.000000000000000000e+00 0.000000000000000000e+00 0.000000000000000000e+00 5.740498259506789047e+00
3.407844886449541644e+00 0.000000000000000000e+00 0.000000000000000000e+00 1.707309564782973910e+00 2.956131899508731120e+00 0.000000000000000000e+00 0.000000000000000000e+00 0.000000000000000000e+00 5.749839078626645339e+00
3.405780922459062054e+00 0.000000000000000000e+00 0.000000000000000000e+00 1.710289183807332858e+00 2.955215093700950479e+00 0.000000000000000000e+00 0.000000000000000000e+00 0.000000000000000000e+00 5.718004683427656332e+00
3.414442841650335403e+00 0.000000000000000000e+00 0.000000000000000000e+00 1.703841098596661441e+00 2.959612937515719189e+00 0.000000000000000000e+00 0.000000000000000000e+00 0.000000000000000000e+00 5.772072801710810275e+00
3.415141632515966919e+00 0.000000000000000000e+00 0.000000000000000000e+00 1.709693601546851349e+00 2.951112269864097915e+00 0.000000000000000000e+00 0.000000000000000000e+00 0.000000000000000000e+00 5.728295572695389914e+00
3.406822982026463720e+00 0.000000000000000000e+00 0.000000000000000000e+00 1.701214191437334655e+00 2.962485665662146328e+00 0.000000000000000000e+00 0.000000000000000000e+00 0.000000000000000000e+00 5.774210847364884103e+00
3.406591465427855958e+00 0.000000000000000000e+00 0.000000000000000000e+00 1.700691705191920144e+00 2.953848205234187230e+00 0.000000000000000000e+00 0.000000000000000000e+00 0.000000000000000000e+00 5.763325847468062868e+00
3.406391100311123576e+00 0.000000000000000000e+00 0.000000000000000000e+00 1.709917413593925462e+00 2.958833408813323906e+00 0.000000000000000000e+00 0.000000000000000000e+00 0.000000000000000000e+00 5.717792747993780900e+00
3.420654697914761844e+00 0.000000000000000000e+00 0.000000000000000000e+00 1.702846814636384654e+00 2.953233020855211333e+00 0.000000000000000000e+00 0.000000000000000000e+00 0.000000000000000000e+00 5.816984295589443299e+00
3.412392393946289904e+00 0.000000000000000000e+00 0.000000000000000000e+00 1.701055372485055006e+00 2.950958218103510333e+00 0.000000000000000000e+00 0.000000000000000000e+00 0.000000000000000000e+00 5.826607848857416450e+00
3.412658831153621009e+00 0.000000000000000000e+00 0.000000000000000000e+00 1.704860072690130623e+00 2.955128460782527000e+00 0.000000000000000000e+00 0.000000000000000000e+00 0.000000000000000000e+00 5.740368973986100798e+00
3.418334367297370502e+00 0.000000000000000000e+00 0.000000000000000000e+00 1.707539100710115276e+00 2.948409611430791166e+00 0.000000000000000000e+00 0.000000000000000000e+00 0.000000000000000000e+00 5.737919075792835777e+00
3.419252213509719418e+00 0.000000000000000000e+00 0.000000000000000000e+00 1.704804181840460009e+00 2.957260140157528472e+00 0.000000000000000000e+00 0.000000000000000000e+00 0.000000000000000000e+00 5.781423446913897202e+00
3.413208512888959323e+00 0.000000000000000000e+00 0.000000000000000000e+00 1.706693351749963172e+00 2.955060969515654445e+00 0.000000000000000000e+00 0.000000000000000000e+00 0.000000000000000000e+00 5.829033431505473928e+00
3.417453516132138436e+00 0.000000000000000000e+00 0.000000000000000000e+00 1.710497255820468077e+00 2.949697516137130826e+00 0.000000000000000000e+00 0.000000000000000000e+00 0.000000000000000000e+00 5.814218566263784638e+00
3.404454929803996333e+00 0.000000000000000000e+00 0.000000000000000000e+00 1.706553850436344222e+00 2.962361087094213197e+00 0.000000000000000000e+00 0.000000000000000000e+00 0.000000000000000000e+00 5.783882050373821748e+00
3.416626933329485194e+00 0.000000000000000000e+00 0.000000000000000000e+00 1.710201688536898912e+00 2.953630370567844388e+00 0.000000000000000000e+00 0.000000000000000000e+00 0.000000000000000000e+00 5.782278433924051164e+00
3.415579163429756537e+00 0.000000000000000000e+00 0.000000000000000000e+00 1.703528215345288643e+00 2.959777439672355737e+00 0.000000000000000000e+00 0.000000000000000000e+00 0.000000000000000000e+00 5.727021632903098514e+00
3.404249493690191919e+00 0.000000000000000000e+00 0.000000000000000000e+00 1.702413074899964185e+00 2.946267682812095945e+00 0.000000000000000000e+00 0.000000000000000000e+00 0.000000000000000000e+00 5.779479607563146715e+00
3.417065949828994587e+00 0.000000000000000000e+00 0.000000000000000000e+00 1.704211718731493352e+00 2.946843863140929720e+00 0.000000000000000000e+00 0.000000000000000000e+00 0.000000000000000000e+00 5.766853412141623281e+00
3.416449721368817638e+00 0.000000000000000000e+00 0.000000000000000000e+00 1.708109265717168368e+00 2.949259263261420294e+00 0.000000000000000000e+00 0.000000000000000000e+00 0.000000000000000000e+00 5.796702259142653801e+00
3.416545634866328562e+00 0.000000000000000000e+00 0.000000000000000000e+00 1.704108954739353088e+00 2.958742885539666023e+00 0.000000000000000000e+00 0.000000000000000000e+00 0.000000000000000000e+00 5.770055890517524766e+00
3.414079418453182413e+00 0.000000000000000000e+00 0.000000000000000000e+00 1.703227603867460527e+00 2.954982316756300964e+00 0.000000000000000000e+00 0.000000000000000000e+00 0.000000000000000000e+00 5.796656094457810937e+00
3.413039656566179136e+00 0.000000000000000000e+00 0.000000000000000000e+00 1.708146244378284662e+00 2.956198892747294860e+00 0.000000000000000000e+00 0.000000000000000000e+00 0.000000000000000000e+00 5.757887611415066331e+00
3.420998977491262139e+00 0.000000000000000000e+00 0.000000000000000000e+00 1.705585802074011337e+00 2.959464979468175994e+00 0.000000000000000000e+00 0.000000000000000000e+00 0.000000000000000000e+00 5.815166676058991513e+00
3.408933067499085645e+00 0.000000000000000000e+00 0.000000000000000000e+00 1.708642573964309408e+00 2.962308234366133775e+00 0.000000000000000000e+00 0.000000000000000000e+00 0.000000000000000000e+00 5.761902927733784985e+00
3.407694069712055907e+00 0.000000000000000000e+00 0.000000000000000000e+00 1.705609919065866675e+00 2.948413985226329359e+00 0.000000000000000000e+00 0.000000000000000000e+00 0.000000000000000000e+00 5.812740006171613238e+00
3.409069581902412160e+00 0.000000000000000000e+00 0.000000000000000000e+00 1.706870203305002498e+00 2.948428997410442953e+00 0.000000000000000000e+00 0.000000000000000000e+00 0.000000000000000000e+00 5.774762539674314077e+00
3.414477354660456765e+00 0.000000000000000000e+00 0.000000000000000000e+00 1.709456345181944670e+00 2.961528338015829487e+00 0.000000000000000000e+00 0.000000000000000000e+00 0.000000000000000000e+00 5.793904498936968572e+00
3.405807043308055615e+00 0.000000000000000000e+00 0.000000000000000000e+00 1.702023445866472917e+00 2.960304492411655275e+00 0.000000000000000000e+00 0.000000000000000000e+00 0.000000000000000000e+00 5.728946780270490535e+00
3.403110240882650572e+00 0.000000000000000000e+00 0.000000000000000000e+00 1.701918660462292010e+00 2.948877455473188913e+00 0.000000000000000000e+00 0.000000000000000000e+00 0.000000000000000000e+00 5.731649453041142372e+00