1.783844290892567352e+00 9.521869975845004275e-01 1.449717131533657222e+00 3.339887796336503456e+00 2.033031033356984985e+00 4.325888085247513004e+00 -5.178351440258380234e-02 -1.247493692861667254e-03 -4.640979649544049734e-02
1.650977766932550050e+00 9.883431195372317513e-01 1.410755688584375944e+00 3.458419094792513526e+00 1.973741914653431628e+00 4.399710635589504371e+00 -7.945327921952834160e-02 -3.452418064460689023e-02 5.652891253175672953e-02
1.737911047278545063e+00 9.808386740944614601e-01 1.448433864918332370e+00 3.493052675604798374e+00 1.993537583367966715e+00 4.379942565175165115e+00 -9.245254497627859724e-02 -1.913271541377310758e-02 3.438125422201678688e-02
1.730332848651293665e+00 1.047943582331747336e+00 1.376346159823508053e+00 3.400394511083018489e+00 2.022646437426319554e+00 4.379857673705264354e+00 7.534070133903367217e-02 8.221390812951216709e-02 -4.484765157511445138e-02
1.808624703244113174e+00 9.219689494474218039e-01 1.319899946678603664e+00 3.370297348312702113e+00 1.925608118210519804e+00 4.341223299596724594e+00 8.367993594613298836e-02 -2.982369179120531247e-02 7.188166196108899952e-02
1.656471631692941315e+00 1.035420029160030397e+00 1.442994065804602766e+00 3.405233824785829366e+00 2.050952925707987262e+00 4.423377577481282685e+00 -4.888520945347373664e-02 -8.342890387063660318e-02 8.769657351316813287e-02
1.778659353276732968e+00 1.023278511857234063e+00 1.332492942515607126e+00 3.351752583930116991e+00 1.912710268921184564e+00 4.421188610093055971e+00 9.004016580555468385e-02 -3.170299290359870209e-02 -2.676254393286484068e-02
1.626644517896485675e+00 1.060071871400838139e+00 1.362782507705276869e+00 3.427637799497373017e+00 2.058400230533399267e+00 4.383398208462689460e+00 1.299405292194445380e-02 3.723200364551559199e-02 -4.213030581712490555e-04
1.692513298036652847e+00 1.004571567345285077e+00 1.420180872268634431e+00 3.304920835429414616e+00 2.062738982662423393e+00 4.289397407407877338e+00 5.825446386402907684e-03 8.564505366227456729e-02 2.836141631276670877e-02
1.747779491063865986e+00 9.159071551974640180e-01 1.449902813476899421e+00 3.443712868268127281e+00 1.902800726787398755e+00 4.404688451771937352e+00 -8.277382314909348393e-02 8.718147212715507410e-02 8.113993094008956075e-02
1.781331916715893859e+00 1.080025241364022337e+00 1.364990356449657716e+00 3.475721781067536487e+00 1.957953172148641841e+00 4.429303167036591660e+00 -7.946703043110814324e-02 -2.404695155165948936e-02 5.077659031251581523e-02
1.670399684540222029e+00 1.039816105286140102e+00 1.365464715465686707e+00 3.318764001525928542e+00 2.005833833939694610e+00 4.472206604531674401e+00 -1.316845229335254948e-02 1.169923922214057520e-02 -6.675739793617964379e-02
1.742291405921501557e+00 9.429837907754493598e-01 1.433284552120389632e+00 3.336461064567484591e+00 1.903503491386419499e+00 4.338256975196932430e+00 -9.432224364592373123e-02 1.030696316792131459e-02 7.307216483900624490e-03
1.688516901479524934e+00 8.995374608243497105e-01 1.370623112766872431e+00 3.351244363753882460e+00 2.031844552745498689e+00 4.375028520095344930e+00 -9.490189140738902740e-02 2.810646471201924679e-02 -4.323810363745705931e-02
1.633394489720948917e+00 9.926628435270251627e-01 1.401837095839077563e+00 3.383736571800317172e+00 1.946706827985866584e+00 4.444767218981562351e+00 9.711262275181800629e-02 -7.411081963410456885e-02 6.396568222509588231e-02
1.643784002872724193e+00 9.771564749324017640e-01 1.494390483288494886e+00 3.432668209177139218e+00 1.911141707402071122e+00 4.294834587567661899e+00 2.779555122275666201e-02 7.683871742398047655e-02 7.289703300200986447e-02
1.777078026220232365e+00 1.021142875592105259e+00 1.378771671842305979e+00 3.461604499538943003e+00 1.973638936429833901e+00 4.356940985758837925e+00 5.871630448744147301e-02 -9.988929055315043382e-02 -3.983015508720155751e-03
1.767790888290984519e+00 1.019666937720104638e+00 1.365766096160570875e+00 3.356249659408858665e+00 2.010625802589205424e+00 4.354616558834171869e+00 3.354561835381481005e-02 2.655429913142309459e-02 -8.062055364764621201e-02
1.758441871857462813e+00 9.487342802210004811e-01 1.345281612990825826e+00 3.476410778099461307e+00 1.933820833831980224e+00 4.312387400929552861e+00 1.518026931971703727e-02 -3.346574872545298590e-02 -7.160308005569318568e-02
1.726144167972815779e+00 1.061609515353616029e+00 1.507940331635720277e+00 3.419607840898581053e+00 1.988720359480027566e+00 4.388106530574654940e+00 -1.779085403196377715e-02 -1.255788292929840670e-02 -2.285940417525375232e-02
1.652416991495494702e+00 9.691294778131918086e-01 1.314740675517554136e+00 3.399323761326339621e+00 2.069157242327332558e+00 4.366407936974452397e+00 4.804460477034388360e-02 7.799645101046161211e-02 -6.366894564267303047e-02
1.744379688866481981e+00 1.002359068449589774e+00 1.365505843768893612e+00 3.376099735557477111e+00 1.929912949492912588e+00 4.411070405121863658e+00 2.947872160590401039e-02 3.869487341370957123e-02 7.172766530589279321e-02
1.637350135102007220e+00 1.049134494839027765e+00 1.381546546058086911e+00 3.332589691209997262e+00 1.929501329931041287e+00 4.247029955727139594e+00 -1.518545476569466146e-02 8.286148863193330827e-02 1.902185306971829193e-02
1.762330484431784416e+00 1.027198097619359318e+00 1.432093729742355270e+00 3.324528985144843407e+00 1.907831871471343366e+00 4.329884795327140878e+00 6.055290905105315674e-02 1.986556494015685390e-02 5.869125523877612161e-02
1.685340777510851318e+00 1.056551776599189640e+00 1.357871444033891484e+00 3.450954297593254338e+00 2.060491370156545266e+00 4.321306616195712991e+00 -6.886811006943394098e-02 5.834885517503977936e-02 -5.741927777332756638e-02
1.631055154598047841e+00 9.174153333535162158e-01 1.483682373211083316e+00 3.388182215474198067e+00 1.872427674989087798e+00 4.392810315109418440e+00 6.655336467883035678e-03 -8.421310933597296600e-02 9.087423641518749262e-02
1.664347813718301872e+00 9.920334437101381297e-01 1.402052677574816775e+00 3.364569092055621269e+00 1.982828099558251012e+00 4.396996767884575164e+00 3.803228217377869341e-02 -6.019912311284892487e-02 -6.985618944241136531e-03
1.606654363765062765e+00 9.962520340398985930e-01 1.377722353113475462e+00 3.375169430657130931e+00 2.035613470547362525e+00 4.382351501494436086e+00 -9.624840759399995449e-02 7.930732725404107675e-03 9.165211580422832557e-03
1.771909437376841590e+00 1.055709709942937113e+00 1.424497115666480962e+00 3.513329340545626955e+00 2.014874877992920865e+00 4.315837841838930267e+00 -4.371611543947100109e-02 4.828721299040559384e-02 -3.124655777949298871e-02
1.742128270422260705e+00 9.065008641357409358e-01 1.461478793071909976e+00 3.318375841756881606e+00 2.018477957767422559e+00 4.468948513356932217e+00 9.466047780980993420e-02 7.933628235233980419e-02 9.880631752322706698e-03
1.784011850075009953e+00 1.086557271685560044e+00 1.364279408097583079e+00 3.496906620516825992e+00 2.039646024199073704e+00 4.286605258278590291e+00 -6.729480820579424039e-02 5.193305331785157825e-02 -6.275758963060366902e-02
1.709441588622524932e+00 1.004595863537272482e+00 1.398772938371456886e+00 3.489924814735148928e+00 1.895590416941099088e+00 4.289377438596623904e+00 -2.563377486536677630e-02 -6.772226252347689213e-02 3.403493246711674584e-03
1.691845005880024289e+00 1.059912710605908526e+00 1.312647786371394565e+00 3.310544373673670382e+00 1.950345542543871380e+00 4.428112748938446863e+00 5.310648441504824124e-02 5.837848734417862978e-02 -1.118100014055257475e-02
1.673809857440700100e+00 1.011000007620052488e+00 1.329205131164480580e+00 3.396552386630428799e+00 1.943382541506945227e+00 4.375918568819148646e+00 -6.960629072290665936e-03 -4.905121788083050688e-02 4.187870098149956699e-02
1.618125743791304139e+00 9.310674646755940920e-01 1.444339728219867558e+00 3.391926764658507842e+00 2.063374603399995788e+00 4.377557221226640927e+00 6.657821066064528726e-02 3.508161618274421162e-02 -2.455789663874520523e-02
1.720103214274776082e+00 9.787748965762839148e-01 1.471336970049805792e+00 3.331163574115539205e+00 1.992885645197408184e+00 4.374455904186388189e+00 1.887615882074319268e-02 -3.791763416431144507e-02 5.608863389172053654e-02
1.775108688454104744e+00 9.155124795944730165e-01 1.439739908504510835e+00 3.426732977942910541e+00 1.877502485575209379e+00 4.339462482518799291e+00 6.928333604852526806e-02 4.529026059390314080e-02 -9.727992270037180700e-02
1.777716505851493434e+00 9.833527447289438506e-01 1.478081064345410089e+00 3.454842307203326968e+00 1.873113723063712044e+00 4.407703949536838195e+00 9.029045093538889954e-02 1.276256336346792350e-02 -3.569765819649352995e-02
1.607410910904966128e+00 9.389327467661104931e-01 1.438821479956262417e+00 3.500756650588339181e+00 2.029084850379863081e+00 4.351336686313795887e+00 -2.607824020513505731e-02 -5.673268163243370271e-02 -5.215965417489947659e-02
1.674793642801769344e+00 1.031021175665637113e+00 1.447934808117139482e+00 3.437835255835410386e+00 1.878681932240900299e+00 4.265373355228720520e+00 -6.342962646953125005e-02 -7.690381845091184831e-02 -5.358345963264870421e-02
1.617852524176412565e+00 1.012289985044455554e+00 1.445061483737921426e+00 3.473871088402307628e+00 2.023481821657455715e+00 4.439968373471550933e+00 4.197679914299224171e-03 -2.255023355630681250e-02 -1.007758763563366446e-02
1.675933017911439560e+00 9.355309859181429877e-01 1.332292594793102802e+00 3.412600588797449319e+00 1.907952530984921680e+00 4.364080948962318907e+00 6.878480227414428272e-02 -2.413249790419617208e-02 -8.417475373333826311e-03
1.698024638812125175e+00 9.984627830305293772e-01 1.475598674384331233e+00 3.346397385134170399e+00 1.902005319973873121e+00 4.455904873134994837e+00 -6.371863230644424225e-02 4.740459764870892136e-03 4.665046570091225045e-03
1.678254303602508823e+00 9.340756828179764826e-01 1.346722805659065436e+00 3.385714889951222606e+00 1.911591015370099456e+00 4.443673125528839307e+00 9.829291651920285533e-02 -8.862322556034286924e-02 6.081291826012475560e-02
1.602889591225307386e+00 1.078994927278307259e+00 1.386784284312098992e+00 3.470232561798886728e+00 2.055157451927853263e+00 4.366378241516001069e+00 6.673942617104247632e-02 -3.420277040493353848e-02 -6.449307907519856442e-02
1.667466678173763261e+00 1.062843760051181752e+00 1.455876671934699607e+00 3.351152726056835895e+00 1.936730116125989332e+00 4.366050332877615681e+00 9.267263933221289718e-02 5.718448863798329673e-02 -1.835631165836473094e-02
1.782704432865698685e+00 9.840683714352160827e-01 1.303483356024960793e+00 3.363389715059303953e+00 2.038554793076060800e+00 4.347790780257272836e+00 9.677496559319923031e-02 -6.956246385942665977e-02 -2.429668894187499498e-02
1.738169292004016153e+00 1.076196799187415065e+00 1.403161976629947683e+00 3.317607309938791715e+00 2.004362570942021193e+00 4.438462195832419965e+00 -3.992565879112149746e-02 8.481243403837648853e-02 -3.396118042886828864e-02
1.741219938728762573e+00 9.561006704188942384e-01 1.391079219701733427e+00 3.383108895475112732e+00 1.900895655171920273e+00 4.395610772911384245e+00 5.453732755301246571e-02 3.038756947178325105e-02 9.340221127294084935e-02
1.803993972832313109e+00 9.503716455155840626e-01 1.488882174413733495e+00 3.442203448767711560e+00 1.958797321634339950e+00 4.334156733381177240e+00 6.330185382944039651e-02 7.588515959824171375e-02 -3.027697556000269463e-02
1.680552785325267973e+00 9.578251436584142020e-01 1.329994380937158827e+00 3.428386778343476493e+00 2.025250576193568186e+00 4.283818003203100133e+00 -3.076109609301536096e-02 7.011890697170267139e-02 -6.470986483754370688e-02
1.757222717491171204e+00 8.907515754965910082e-01 1.321736963928256126e+00 3.404352241889700537e+00 1.986580158681247932e+00 4.307498885608999295e+00 7.484943718872036356e-02 -9.175747971528416813e-02 -2.628394545637441002e-02
1.700717723224663969e+00 1.020716040171697481e+00 1.450546654978253525e+00 3.355382139790574758e+00 1.890746387243108728e+00 4.314542081638061966e+00 -6.921452045367448846e-02 9.589508342881536418e-02 -1.184976302476267902e-02
1.657050261697172511e+00 1.031567035689660461e+00 1.374103293995941666e+00 3.464425022297081824e+00 2.015309200424035829e+00 4.252015138102155589e+00 -2.889120000507512664e-02 -7.158324439749934320e-02 8.681321407138144208e-02
1.669317156500313981e+00 8.943534576224865251e-01 1.346684828001369461e+00 3.467549725794003557e+00 1.947624818134804814e+00 4.407886839490569031e+00 -9.349987224653877327e-02 -2.623313484362525469e-02 -8.978835607303915778e-02
1.739241753953326919e+00 1.067188643641668433e+00 1.476982892127396196e+00 3.462238817647118161e+00 1.920677312676772663e+00 4.324667008545740821e+00 1.110825491607049520e-03 -4.942666119927092289e-02 7.674983091873750773e-02
1.690138581531952955e+00 9.561288497478844794e-01 1.414534864787487800e+00 3.417519028987793028e+00 2.040022257209786360e+00 4.290331880700313683e+00 -8.268710342119510448e-02 5.891394403770468247e-02 -3.580635697507417864e-02
1.691854858202151979e+00 9.231673855799550354e-01 1.390227095625226506e+00 3.316618975481115061e+00 1.892067535438603842e+00 4.382743738200931105e+00 5.053754013329343070e-02 7.091741595405524901e-02 -6.904924532182549202e-02
1.734749265819306441e+00 9.429075817856701347e-01 1.458734685853666058e+00 3.366087254912224047e+00 2.015154449244045409e+00 4.315192931594393322e+00 5.186275900220385648e-02 1.050237038116472003e-02 6.110220137688236221e-03
1.614760565524981040e+00 9.828544759063514435e-01 1.354212578627345342e+00 3.337055990442591824e+00 1.926588845653808502e+00 4.395832572175186748e+00 -2.076901206912691589e-02 -4.629754502321650755e-02 -4.100234456163993901e-02
1.625070482156740548e+00 9.608180036807582036e-01 1.376876567214033953e+00 3.502840675224370592e+00 1.866630192395889676e+00 4.272759041142586867e+00 -4.030557406658492187e-02 3.752900592666226498e-02 -4.776320369872827376e-02
1.797020109090538664e+00 1.016698241572450145e+00 1.336183301660879286e+00 3.495995032474869646e+00 2.049881188613291272e+00 4.354420111111164005e+00 7.589458321077077740e-02 -4.652875253990251814e-02 -4.800163545617196909e-02
1.705345147372690384e+00 8.953610056672830497e-01 1.347136823257361504e+00 3.394800831799614116e+00 1.966877979279543665e+00 4.364164937803750810e+00 2.786331679974919304e-02 7.891487717543441138e-02 5.181581647434143484e-02
1.690182833996027423e+00 8.900723501582473718e-01 1.300701856543766910e+00 3.378751035981505169e+00 2.043759277019531417e+00 4.429950039415604834e+00 4.180012943132983133e-02 6.635877526370999313e-02 -5.980502562758059637e-02
1.640503552258083975e+00 9.862652491080348138e-01 1.377820401719549892e+00 3.388611647513877667e+00 1.969630029673756555e+00 4.302584314240015750e+00 -6.860413468266386705e-02 -6.941104431059742785e-02 6.684776593622716867e-02
1.714661435266753520e+00 8.907103065007838660e-01 1.473548989489506855e+00 3.476566951099509417e+00 1.980550173953067761e+00 4.363659805945800052e+00 -9.925801488912901205e-03 1.214229788871326772e-02 3.653928396092039760e-02
1.766104489611434403e+00 1.065835734124534362e+00 1.459050024261880241e+00 3.504419834341272022e+00 1.954145793626534733e+00 4.393610626516117890e+00 5.651469545851574294e-02 1.918203104289182767e-02 2.738040444546498489e-02
1.656063357614715681e+00 9.223752339844013548e-01 1.389936818050633738e+00 3.436952860533703191e+00 2.067029393489164146e+00 4.398472766564960779e+00 2.907914988689422331e-02 1.595190418973410629e-02 -7.527910980707600008e-02
1.792018511154317872e+00 1.048603225940228478e+00 1.433531397951347319e+00 3.433719955848383076e+00 1.911678203026907275e+00 4.370904548054938665e+00 7.024588660271972873e-02 -4.107937746510783444e-02 8.418208459664412724e-02
1.653010498167145181e+00 1.081583089365023564e+00 1.384806477054469909e+00 3.383481141312835838e+00 1.942291363492067102e+00 4.334512509798805091e+00 -7.940877586211941841e-02 -2.983116547267255364e-02 8.303031692371866390e-02
1.747555211811914422e+00 1.070465987398064422e+00 1.502691779258464200e+00 3.353917113214740731e+00 2.000099800951172568e+00 4.399484994698476648e+00 9.583240280261177968e-02 3.538174685576151585e-02 9.180153518208872265e-02
1.759220636034434904e+00 9.581907248825581869e-01 1.300167754410401111e+00 3.474247308235661080e+00 1.872798764684917128e+00 4.422024850981099320e+00 5.428972321862421402e-02 5.602238049401760817e-02 8.681706741915092007e-02
1.714205241893515197e+00 9.585996236448187657e-01 1.471481365925241036e+00 3.508126807618971554e+00 1.931756809418925025e+00 4.358926412483561386e+00 9.282329755004725680e-02 -4.795102947239758551e-02 -4.682401741233509218e-02
1.652249480938597692e+00 9.246433885472352676e-01 1.373058027791823621e+00 3.325382741210013204e+00 2.052086245886230120e+00 4.418863045590693872e+00 -5.960236187867330726e-02 -5.182852080424187047e-02 -3.130987518433467343e-02
1.780736990269391917e+00 1.036220317533961266e+00 1.432904868885528149e+00 3.328377115789884932e+00 2.011873588214081465e+00 4.338665594525807023e+00 8.510744528837817235e-02 -9.117892603456939637e-02 -6.867369077673389499e-02
1.719448083911779168e+00 1.031294471959248282e+00 1.375239789594596251e+00 3.504445963025819566e+00 2.012835056912361420e+00 4.370246368946594018e+00 -2.898284961105770247e-02 5.771615580379948866e-03 7.605419378412488218e-02
1.675220105933370007e+00 9.545702685665570231e-01 1.401344430452590828e+00 3.334646943312558065e+00 1.893083932662446678e+00 4.308106872710049551e+00 -4.863941797398531330e-02 5.254957974748590555e-02 -8.193471714384695237e-02
1.785693789648404417e+00 1.005059301098923941e+00 1.354647776910880008e+00 3.387253419365662044e+00 1.909673392966384720e+00 4.285526377951230259e+00 -2.107238905122637077e-02 -2.490750503693036841e-02 3.529833710798942897e-02
1.776825953609541209e+00 9.844045862206124431e-01 1.413099802541401662e+00 3.500959909250636048e+00 1.936728689068393905e+00 4.369964391539040705e+00 -9.444724028423925888e-02 -3.698886875699675114e-02 4.602983912163246399e-02
1.716064494528482864e+00 9.574511090653087253e-01 1.446982560377647609e+00 3.381427236364299205e+00 2.046422925890160727e+00 4.362091233661725020e+00 -1.109657542024439919e-02 6.832647380351836164e-02 4.416069459460690572e-02
1.691341009655702221e+00 9.105090239992915668e-01 1.413019388568215406e+00 3.349211054453091307e+00 2.038997247584463324e+00 4.465099114200088870e+00 5.982277771722374626e-03 -9.933431109109094881e-02 -4.413256147146910058e-02
1.714745691595044086e+00 9.647074003295014188e-01 1.425757849393648913e+00 3.498663472389043516e+00 1.956292146602114368e+00 4.326584943617331369e+00 -7.632484610800820135e-02 -1.907793422927534302e-02 3.826253403383336749e-02
1.616908862062517160e+00 1.086108036271455690e+00 1.440816739048487616e+00 3.325159980523360481e+00 2.046236410319453469e+00 4.406445780467481477e+00 -2.498173430458490787e-02 -5.999168117406798728e-02 -4.842196201296651570e-02
1.776560483353702313e+00 1.002416878020707669e+00 1.369531944166511028e+00 3.501354630218077357e+00 2.014695937407513071e+00 4.282001229802169462e+00 8.530345755728963031e-02 -8.165954908154690606e-02 2.342936165689671682e-02
1.626569213040979456e+00 9.856113105533491625e-01 1.313778753392644605e+00 3.347403014671248123e+00 1.904483878499785288e+00 4.303059836775043223e+00 8.018038673369276559e-02 5.062890180065550416e-02 -6.278145062906535789e-02
1.665015467564806784e+00 1.009126449158180172e+00 1.367496649005541576e+00 3.432480086415077736e+00 1.886859141200354140e+00 4.399036760307216909e+00 -4.905651735568083982e-02 -1.997811470782854051e-02 9.984507198700838526e-02
1.666323924239581089e+00 9.186315577024021239e-01 1.355131160366459753e+00 3.394477171448680330e+00 2.041728913356809727e+00 4.448407413203357308e+00 -2.656238354220432502e-03 5.368270581744364472e-02 6.912868816314841902e-02
1.762168966386431723e+00 9.167854122677412398e-01 1.302389331798398553e+00 3.340507012249871011e+00 1.887620614288146870e+00 4.451069703379181064e+00 9.878065592722390376e-02 8.069296178110674234e-02 5.345379354466411187e-02
1.693384514455048340e+00 9.772317188015177125e-01 1.395194882913802337e+00 3.387055380931238258e+00 1.997883702799726713e+00 4.318307935180933477e+00 -9.697689717227891970e-02 -3.879864783610105505e-02 9.822094247555669677e-02
1.686132788353898793e+00 1.085112281638725085e+00 1.363494578221414510e+00 3.493232570998012321e+00 1.960078340627552373e+00 4.371458851803016188e+00 -6.889770234305613028e-02 -9.336133774035917932e-02 -8.007217950323386457e-02
1.632880021296325701e+00 9.371466869997590043e-01 1.414806183650303195e+00 3.400041615331002909e+00 1.996829754528554934e+00 4.490960606404872379e+00 -1.775584270223857369e-03 -4.823528275941836585e-02 -6.235240371654684338e-02
1.625147540670473401e+00 1.058704721322076825e+00 1.383985371489488969e+00 3.500766816876192955e+00 2.025675820039976482e+00 4.452252193275021419e+00 -9.485530438578299028e-02 -5.578154846150723545e-02 2.091913353557298474e-02
1.617234754364093696e+00 9.485054970935952179e-01 1.379876750557134546e+00 3.414861085003066954e+00 1.921761021339468911e+00 4.477856099525603817e+00 -6.553842708253305657e-03 -3.305173195408415976e-02 -3.471009906626242036e-02
1.621557363891140469e+00 1.054254892764618701e+00 1.388052007453611791e+00 3.498832293588336029e+00 2.049904398252202498e+00 4.365527699996404110e+00 -7.746337994570368091e-02 -1.660185527188129048e-02 -1.828554450321779809e-02
1.734131831159818837e+00 9.202126743533636244e-01 1.443482891851965100e+00 3.454653435064549249e+00 2.063945479545795880e+00 4.385349373152939378e+00 -5.336391204471156724e-02 -1.779060279008970805e-02 7.550851818578237229e-02
1.781930711836784198e+00 9.384980785843806128e-01 1.449912751941929034e+00 3.443678320069520460e+00 1.895349128356404567e+00 4.311331286604041857e+00 -5.591770612816320679e-02 1.595669666851613419e-02 -4.448212936017604396e-02
1.664109661463071932e+00 1.058247323278387997e+00 1.301729626313220534e+00 3.370668033521617257e+00 1.906119965093100888e+00 4.373954433730633085e+00 -2.312752045347844787e-04 -3.693557889346287676e-02 -7.072286262264566858e-02
1.639151004831169045e+00 9.783318285517528246e-01 1.374768444181418303e+00 3.443351184547454036e+00 1.892637218352082540e+00 4.321890600545210681e+00 -1.689698467087948769e-02 -4.377840645675026843e-02 3.657511889729281318e-02
1.637091893625405525e+00 9.480421547743625998e-01 1.393888732163476307e+00 3.474564890591932631e+00 2.018219503423147820e+00 4.248200452543754224e+00 4.966614883872449288e-02 -5.609870268011739325e-02 9.937061850537803886e-02
1.767958576652279845e+00 1.028423309867484203e+00 1.359073241385331476e+00 3.431756310991565417e+00 1.989703150250803354e+00 4.301401790743467402e+00 4.019908225465066570e-02 8.915759727027214310e-02 1.994612564189442508e-02
1.621490761975489470e+00 1.017564645099055420e+00 1.309994502936239869e+00 3.329079947668922124e+00 2.062289851485836767e+00 4.383597230977875014e+00 8.240511161412288066e-02 1.324134026632490559e-02 -1.705141087927250845e-02
1.605410490744654251e+00 8.909780392275344907e-01 1.353698846704855629e+00 3.355556201047309450e+00 2.029947202132595940e+00 4.395906967102098051e+00 1.085536502615441073e-02 4.865862940823742488e-02 -3.495508454442372570e-02
1.645616743272910742e+00 1.054103018099753486e+00 1.310352947145752012e+00 3.368335883181539980e+00 2.064833205342738065e+00 4.315644700307588622e+00 4.750088708972054208e-02 2.607155878570429838e-02 8.238222252364259257e-02
1.657153561236143879e+00 8.901662388684186134e-01 1.430788164521473949e+00 3.352133565093587286e+00 1.928409403393773314e+00 4.443041583782643578e+00 2.153905219184543834e-02 6.908664664693646429e-02 5.660595869529322366e-02
1.797502063653056092e+00 9.969213720806581192e-01 1.310169533543370735e+00 3.485650456611212089e+00 1.914511917545350883e+00 4.237070499551273350e+00 1.986954652861054604e-02 2.805062567294733938e-02 -9.183316989507703601e-03
1.716453674066082957e+00 9.096613050059427774e-01 1.372964720664035410e+00 3.412666573156537098e+00 2.040483981558508741e+00 4.456984876570605714e+00 6.104879098778463048e-02 -7.844652347352233657e-02 2.968209037267416448e-03
1.621780529079449806e+00 9.847193580650410727e-01 1.459514738594479111e+00 3.349211435477644994e+00 2.022526872840238354e+00 4.413950154515293711e+00 2.017600681782812100e-04 -1.386081596840285472e-02 9.535626238439591507e-02
1.660520569796462897e+00 1.057377620767841586e+00 1.357793860057981750e+00 3.398590588429270642e+00 1.893481178445565627e+00 4.434023027934530958e+00 2.123065411595458085e-02 -8.557612239983347635e-02 -1.487674369858490216e-03
1.792096835543543376e+00 1.079745378210790641e+00 1.315470039126894308e+00 3.398540789279995700e+00 2.066420553236094637e+00 4.318029088339222277e+00 8.314748090779172651e-02 9.902834156568200707e-02 -8.699885241655200274e-02
1.755049143914627852e+00 1.077110477797006860e+00 1.328811823721758101e+00 3.398187103150025479e+00 1.951400072279539044e+00 4.391071816313965925e+00 -3.548444268675000901e-02 -4.628713752794778868e-02 2.630033306835205878e-02
1.651418096238517874e+00 9.788565357644061216e-01 1.414696175728485938e+00 3.436319681687163285e+00 1.912456474351867053e+00 4.304826329911675131e+00 -5.758019812370077095e-02 -2.368039304896092309e-02 6.809614063427928132e-02
1.722408189486276608e+00 9.991694410593977560e-01 1.358926242990372568e+00 3.441439476162686972e+00 1.871675859961813293e+00 4.331978942078736239e+00 2.316833266753294887e-02 -4.564281756991384054e-02 6.593086149898688686e-02
1.620352057373951826e+00 9.282949087806120492e-01 1.425949197509712052e+00 3.441347471832521876e+00 2.056482698400747378e+00 4.272521171780389260e+00 -7.763779843430304584e-02 2.092807077237834532e-02 3.288678934380138280e-02
1.789163730104129213e+00 9.508541536749024470e-01 1.487352457249434989e+00 3.357696210726175856e+00 2.043448463672983273e+00 4.335959527005289971e+00 -8.495002777012493345e-02 -5.069065658081872011e-02 -5.682616158302113141e-02
1.622125935600563729e+00 9.169129514070223363e-01 1.476919194955517600e+00 3.380541979123473872e+00 2.069250667100645202e+00 4.468481405012596497e+00 -8.555507250522681462e-02 3.146008546742295325e-02 7.009851735723524047e-02
1.805105345838909692e+00 1.028478365062482025e+00 1.515705053227541566e+00 3.434991728497606367e+00 1.914438375967644879e+00 4.454385777728920637e+00 -8.015143759793222356e-02 8.020157892362320129e-02 -9.645055819373317407e-02
1.765276000301913673e+00 9.430340654756672603e-01 1.328140626429085147e+00 3.466810020982367568e+00 1.870756955821486711e+00 4.376635658991229860e+00 8.009546624136855419e-02 -4.920695400291226485e-02 5.961215436078524596e-03
1.652071570556923330e+00 1.046955368339708148e+00 1.404873814873057736e+00 3.417517310679179410e+00 1.909240073350601863e+00 4.335879871549381370e+00 -5.150926309393531743e-02 7.762068134460091418e-02 -8.621294225916487086e-02
1.758176571052251225e+00 1.061743802726806019e+00 1.482271265479945033e+00 3.466310487697057852e+00 1.891122518104362049e+00 4.395689501219419704e+00 -3.328780758516652200e-02 -5.537860824463576581e-02 -6.677174345557245275e-03
1.766482713043775465e+00 9.951777909883505746e-01 1.324851600957210662e+00 3.482884387775303736e+00 1.948831008372863272e+00 4.373917905294621100e+00 6.849833454590774362e-02 7.085197268958216832e-02 -7.184131910872125493e-02
1.644874192998976969e+00 9.640536433766915270e-01 1.363956638770510876e+00 3.324666815438885870e+00 1.922406802329373221e+00 4.300951266213470348e+00 -2.375878936645217654e-03 -5.990097311552733395e-02 6.972680239174815220e-02
1.760843714957311512e+00 9.557712464795873331e-01 1.309809897746089691e+00 3.377193051130054080e+00 1.967601674362250419e+00 4.377294650676746279e+00 2.570524844680357329e-02 -2.030308826010896600e-02 -4.778774025730869322e-04
1.803764021782104710e+00 9.461866310259144930e-01 1.341057984472716624e+00 3.375906889822917201e+00 2.064424841210383832e+00 4.397638952837818138e+00 -9.998559561619453639e-02 9.652929662404439656e-03 -2.352830713133256813e-02
1.756537902773861681e+00 1.024905674913179965e+00 1.384884415463487839e+00 3.396513098125082397e+00 1.983358733266211038e+00 4.315370996909782875e+00 -1.538180794671724708e-02 -6.039029356482987498e-02 -7.199067032699195401e-02
1.796096482799090177e+00 1.049842134872702726e+00 1.444754402517982372e+00 3.379420280221667738e+00 1.981729232848208344e+00 4.460948451834938489e+00 -1.515366467052354366e-02 -1.013994352753203650e-03 -3.618101791878085283e-02
1.645850115034236838e+00 1.079822376194836675e+00 1.303949364580790915e+00 3.433559445106627805e+00 1.873679533380190998e+00 4.396251586261691102e+00 2.351815896404522988e-02 -1.455605953404757666e-02 -1.905353160746003569e-02
1.713136744712686177e+00 9.548390894879508206e-01 1.507950963255541676e+00 3.392951763263636789e+00 2.000396825637555054e+00 4.459945804625354171e+00 9.652694775551171752e-03 2.792361918749622710e-02 3.430087076900735412e-03
1.713648329505363943e+00 1.068263193281729029e+00 1.391994848658782535e+00 3.450760195674646980e+00 1.903741491275702469e+00 4.364366389241119748e+00 -2.944893307319828082e-02 -5.489011559578596371e-03 -2.817199897003790435e-02
1.615853992002469930e+00 1.041910072652983077e+00 1.358527963514969406e+00 3.436737341054566741e+00 1.958634238242064507e+00 4.457772973069999090e+00 4.991645492228218017e-02 -9.436739148981763969e-02 4.266867049897380554e-02
1.714713449970427739e+00 1.074371177458545823e+00 1.409457577406796336e+00 3.426495711812730161e+00 1.897864130937150229e+00 4.383133710202308464e+00 6.071058160471216880e-02 3.456594487758282708e-02 2.840198843917608046e-02
1.656804493183258842e+00 1.047663519353436046e+00 1.458859651959536041e+00 3.469939287002697270e+00 1.962297046253293820e+00 4.344146460531339571e+00 -2.383628687803264479e-03 9.313197508962701987e-02 2.819235329376982950e-03
1.622740521049569118e+00 1.047829080995104079e+00 1.455951660204887865e+00 3.322093390825276771e+00 1.963563664014835730e+00 4.418201583612575867e+00 -1.358591607043508481e-02 6.349303979051905411e-02 -3.607814295501159119e-02