  -39.305917
  -39.360434
  -39.360407
  -39.347334
  -39.241259
  -39.349160
  -39.295590
  -39.369999
  -39.322761
  -39.321471
  -39.275110
  -39.251192
  -39.361910
  -39.352550
  -39.331016
  -39.226956
  -39.362681
  -39.340055
  -39.387503
  -39.321944
  -39.324106
  -39.313341
  -39.329402
  -39.314293
  -39.369848
  -39.338703
  -39.385271
  -39.379539
  -39.367631
  -39.301713
  -39.372663
  -39.323219
  -39.232582
  -39.320410
  -39.322778
  -39.373937
  -39.298793
  -39.313123
  -39.250089
  -39.309103
  -39.338446
  -39.336472
  -39.339684
  -39.277765
  -39.299361
  -39.338740
  -39.265920
  -39.350540
  -39.317074
  -39.315643
  -39.380342
  -39.346895
  -39.330049
  -39.211469
  -39.277596
  -39.210119
  -39.363511
  -39.273680
  -39.333445
  -39.310496
  -39.327324
  -39.378863
  -39.291120
  -39.137925
  -39.318382
  -39.339007
  -39.377434
  -39.260609
  -39.298336
  -39.286774
  -39.336344
  -39.175241
  -39.327272
  -39.344542
  -39.263664
  -39.328008
  -39.341712
  -39.284218
  -39.349337
  -39.346924
  -39.218047
  -39.364279
  -39.301986
  -39.360870
  -39.339110
  -39.274030
  -39.253255
  -39.142247
  -39.314216
  -39.210636
  -39.278947
  -39.249505
  -39.314728
  -39.321626
  -39.332457
  -39.339452
  -39.296425
  -39.315784
  -39.168357
  -39.371799
  -39.283382
  -39.323634
  -39.213097
  -39.341006
  -39.341143
  -39.286995
  -39.378402
  -39.294205
  -39.367742
  -39.255514
  -39.247089
  -39.237413
  -39.299074
  -39.251405
  -39.342921
  -39.117174
  -39.359585
  -39.310547
  -39.324555
  -39.304270
  -39.271538
  -39.329246
  -39.272562
  -39.374135
  -39.312234
  -39.229463
  -39.343381
  -39.348669
  -39.273250
  -39.346548
  -39.335353
  -39.285848
  -39.360767
  -39.226281
  -39.329777
  -39.265401
  -39.287456
  -39.253781
  -39.251969
  -39.330390
  -39.324906
  -39.373369
  -39.364181
  -39.210888
  -39.251882
  -39.312624
  -39.300297
  -39.251935
  -39.346743
  -39.215243
  -39.327694
  -39.370696
  -39.261635
  -39.308350
  -39.342891
  -39.271547
  -39.238528
  -39.349602
  -39.326739
  -39.277088
  -39.282007
  -39.324813
  -39.218081
  -39.339782
  -39.347874
  -39.351573
  -39.302677
  -39.342141
  -39.298638
  -39.284901
  -39.341469
  -39.317809
  -39.288542
  -39.295785
  -39.366631
  -39.304421
  -39.249578
  -39.190345
  -39.344441
  -39.359281
  -39.363587
  -39.338378
  -39.220939
  -39.299069
  -39.308151
  -39.369248
  -39.256991
  -39.292383
  -39.359372
  -39.339715
  -39.304218
  -39.322952
  -39.277493
  -39.346774
  -39.391640
  -39.275351
  -39.269695
  -39.337891
  -39.372400
  -39.252983
  -39.328507
  -39.365461
  -39.342048
  -39.319332
  -39.243926
  -39.348114
  -39.240730
  -39.266710
  -39.339341
  -39.319062
  -39.164046
  -39.315196
  -39.374490
  -39.334915
  -39.331298
  -39.218080
  -39.300859
  -39.197994
  -39.292809
  -39.311518
  -39.300052
  -39.177342
  -39.333089
  -39.323028
  -39.339311
  -39.348587
  -39.343473
  -39.395050
  -39.240616
  -39.298439
  -39.317925
  -39.195114
  -39.329724
  -39.294185
  -39.252297
  -39.182789
  -39.325548
  -39.305774
  -39.271130
  -39.342097
  -39.287089
  -39.212034
  -39.176149
  -39.357153
  -39.303139
  -39.334189
  -39.200851
  -39.229861
  -39.300201
  -39.312495
  -39.300219
  -39.351770
  -39.273414
  -39.274242
  -39.288918
  -39.339899
  -39.357624
  -39.337150
  -39.323369
  -39.278089
  -39.300633
  -39.303454
  -39.197805
  -39.381502
  -39.325950
  -39.391960
  -39.340320
  -39.352862
  -39.382807
  -39.365714
  -39.374576
  -39.292863
  -39.297420
  -39.371831
  -39.381919
  -39.344035
  -39.325933
  -39.361687
  -39.317854
  -39.309110
  -39.308987
  -39.216936
  -39.322683
  -39.317305
  -39.308985
  -39.297712
  -39.262747
  -39.196273
  -39.354460
  -39.274238
  -39.333809
  -39.226799
  -39.362790
  -39.337541
  -39.294476
  -39.181041
  -39.212907
  -39.150816
  -39.298388
  -39.214424
  -39.206513
  -39.311316
  -39.326427
  -39.378690
  -39.345263
  -39.108552
  -39.305225
  -39.260974
  -39.373943
  -39.296774
  -39.320821
  -39.289019
  -39.342591
  -39.305931
  -39.322872
  -39.310929
  -39.292321
  -39.215449
  -39.223351
  -39.347172
  -39.361860
  -39.281194
  -39.220067
  -39.368822
  -39.321670
  -39.259712
  -39.269963
  -39.326626
  -39.250170
  -39.268614
  -39.238435
  -39.222015
  -39.286746
  -39.384056
  -39.312574
  -39.326116
  -39.256642
  -39.361398
  -39.268589
  -39.330369
  -39.230972
  -39.364565
  -39.322779
  -39.302875
  -39.334789
  -39.388353
  -39.337291
  -39.276630
  -39.184140
  -39.317024
  -39.196812
  -39.241321
  -39.310827
  -39.320182
  -39.306581
  -39.273593
  -39.318329
  -39.313313
  -39.370245
  -39.299963
  -39.176351
  -39.238682
  -39.337880
  -39.282078
  -39.310350
  -39.313924
  -39.286348
  -39.313449
  -39.204679
  -39.312609
  -39.270448
  -39.303376
  -39.371182
  -39.257766
  -39.340011
  -39.335351
  -39.364118
  -39.338991
  -39.301436
  -39.142937
  -39.223305
  -39.355587
  -39.325665
  -39.221463
  -39.304031
  -39.297879
  -39.151425
  -39.269876
  -39.285779
  -39.283463
  -39.306030
  -39.248405
  -39.314447
  -39.306365
  -39.311107
  -39.058396
  -39.205171
  -39.114225
  -39.203222
  -39.287240
  -39.336781
  -39.295400
  -39.196940
  -39.277190
  -39.304705
  -39.298621
  -39.374217
  -39.386593
  -39.286610
  -39.317775
  -39.304261
  -39.381748
  -39.276691
  -39.235023
  -39.212829
  -39.340373
  -39.370761
  -39.197483
  -39.372038
  -39.322060
  -39.349142
  -39.291605
  -39.362065
  -39.289412
  -39.278613
  -39.316143
  -39.311200
  -39.319275
  -39.325332
  -39.358331
  -39.307214
  -39.279071
  -39.179332
  -39.391105
  -39.242969
  -39.359981
  -39.251288
  -39.206614
  -39.281702
  -39.324426
  -39.253671
  -39.270020
  -39.261442
  -39.374053
  -39.369897
  -39.368642
  -39.354937
  -39.305293
  -39.347324
  -39.171855
  -39.232991
  -39.276640
  -39.337665
  -39.210420
  -39.359095
  -39.336288
  -39.340537
  -39.285449
  -39.286344
  -39.306910
  -39.237316
  -39.343954
  -39.307099
  -39.318955
  -39.246005
  -39.268665
  -39.255694
  -39.377544
  -39.342299
  -39.255790
  -39.293759
  -39.382621
  -39.307002
  -39.375139
  -39.201960
  -39.221025
  -39.297974
  -39.281181
  -39.230870
  -39.382000
  -39.213101
  -39.203977
  -39.359427
  -39.204438
  -39.249412
  -39.255066
  -39.337401
  -39.272420
  -39.248936
  -39.289586
  -39.215918
  -39.279830
  -39.296742
  -39.278174
  -39.325143
  -39.279116
  -39.150087
  -39.309603
  -39.320779
  -39.317333
  -39.183957
  -39.307631
  -39.309444
  -39.359221
  -39.261752
  -39.318663
  -39.306548
  -39.252519
  -39.377857
  -39.328354
  -39.294499
  -39.318068
  -39.303116
  -39.145412
  -39.323261
  -39.218432
  -39.240392
  -39.299959
  -39.225525
  -39.317385
  -39.378899
  -39.329494
  -39.300074
  -39.374578
  -39.338405
  -39.321835
  -39.265398
  -39.279549
  -39.291303
  -39.357766
  -39.181210
  -39.363985
  -39.338109
  -39.314395
  -39.277859
  -39.288419
  -39.128577
  -39.279646
  -39.309884
  -39.278849
  -39.251432
  -39.295923
  -39.150498
  -39.223596
  -39.265488
  -39.143890
  -39.300802
  -39.365214
  -39.345026
  -39.374529
  -39.210987
  -39.352095
  -39.386020
  -39.371336
  -39.332161
  -39.173409
  -39.220159
  -39.318886
  -39.340501
  -39.211587
  -39.267409
  -39.209790
  -39.350550
  -39.235234
  -39.326487
  -39.293468
  -39.266290
  -39.352372
  -39.236229
  -39.256691
  -39.362768
  -39.351571
  -39.364876
  -39.175971
  -39.387932
  -39.293126
  -39.356730
  -39.284820
  -39.296621
  -39.204345
  -39.314041
  -39.366233
  -39.293226
  -39.282920
  -39.365631
  -39.294198
  -39.317745
  -39.345160
  -39.291199
  -39.184206
  -39.312502
  -39.306501
  -39.318088
  -39.361450
  -39.387612
  -39.334073
  -39.340317
  -39.272967
  -39.333553
  -39.290316
  -39.364914
  -39.339110
  -39.279678
  -39.372135
  -39.353869
  -39.375108
  -39.264821
  -39.292533
  -39.222245
  -39.223557
  -39.343412
  -39.329869
  -39.333768
  -39.289556
  -39.345892
  -39.276382
  -39.321172
  -39.312431
  -39.301424
  -39.310654
  -39.267168
  -39.331199
  -39.297007
  -39.373940
  -39.289233
  -39.117547
  -39.366544
  -39.237322
  -39.282355
  -39.357787
  -39.341384
  -39.353084
  -39.376437
  -39.296981
  -39.219555
  -39.288262
  -39.291800
  -39.355424
  -39.317515
  -39.320804
  -39.262775
  -39.295036
  -39.287072
  -39.289247
  -39.350079
  -39.265956
  -39.284089
  -39.360118
  -39.308408
  -39.354423
  -39.288788
  -39.357740
  -39.387682
  -39.297252
  -39.251731
  -39.255219
  -39.268903
  -39.262973
  -39.329529
  -39.339941
  -39.390536
  -39.379027
  -39.376301
  -39.342541
  -39.265124
  -39.352698
  -39.287403
  -39.205632
  -39.308716
  -39.384389
  -39.383469
  -39.323671
  -39.312543
  -39.297886
  -39.290585
  -39.353124
  -39.376869
  -39.380705
  -39.338267
  -39.340497
  -39.224025
  -39.346974
  -39.370397
  -39.294011
  -39.370171
  -39.336304
  -39.262033
  -39.323478
  -39.266762
  -39.222821
  -39.316259
  -39.317457
  -39.283070
  -39.358818
  -39.224792
  -39.286632
  -39.349127
  -39.315214
  -39.330297
  -39.378649
  -39.241478
  -39.290497
  -39.274509
  -39.391552
  -39.380892
  -39.335433
  -39.286581
  -39.316946
  -39.262641
  -39.323127
  -39.172387
  -39.259666
  -39.270051
  -39.327418
  -39.324215
  -39.319728
  -39.278834
  -39.312245
  -39.385886
  -39.246654
  -39.203989
  -39.320904
  -39.305814
  -39.317980
  -39.365509
  -39.302241
  -39.267401
  -39.376035
  -39.374848
  -39.368896
  -39.354044
  -39.274569
  -39.312731
  -39.286494
  -39.383241
  -39.370769
  -39.383807
  -39.255640
  -39.377651
  -39.333943
  -39.364930
  -39.265880
  -39.364738
  -39.209393
  -39.311452
  -39.194102
  -39.292907
  -39.261070
  -39.350387
  -39.125180
  -39.363983
  -39.214712
  -39.356621
  -39.277644
  -39.298139
  -39.337884
  -39.284335
  -39.160480
  -39.267303
  -39.387798
  -39.352723
  -39.371714
  -39.249176
  -39.374725
  -39.258607
  -39.390314
  -39.366986
  -39.247550
  -39.343401
  -39.339398
  -39.315645
  -39.295973
  -39.299739
  -39.360699
  -39.257817
  -39.387460
  -39.243659
  -39.352560
  -39.319952
  -39.221857
  -39.278257
  -39.298628
  -39.304466
  -39.250704
  -39.362066
  -39.342225
  -39.276213
  -39.268235
  -39.365131
  -39.214580
  -39.353160
  -39.253165
  -39.366674
  -39.322144
  -39.300721
  -39.336504
  -39.301063
  -39.296959
  -39.281885
  -39.347396
  -39.161251
  -39.343211
  -39.176497
  -39.367365
  -39.237186
  -39.352073
  -39.350450
  -39.256796
  -39.331892
  -39.328839
  -39.262875
  -39.368248
  -39.200523
  -39.370137
  -39.318317
  -39.186981
  -39.292956
  -39.197508
  -39.315538
  -39.363598
  -39.211846
  -39.312166
  -39.329871
  -39.284799
  -39.237738
  -39.215327
  -39.315571
  -39.275584
  -39.359756
  -39.302872
  -39.359725
  -39.268700
  -39.309834
  -39.300526
  -39.322307
  -39.353214
  -39.249152
  -39.328540
  -39.320929
  -39.350642
  -39.290672
  -39.272409
  -39.205146
  -39.343956
  -39.269733
  -39.237667
  -39.291263
  -39.301710
  -39.339171
  -39.340598
  -39.315279
  -39.367328
  -39.294928
  -39.368624
  -39.238799
  -39.333452
  -39.371100
  -39.196403
  -39.204770
  -39.228349
  -39.349633
  -39.283866
  -39.384121
  -39.258748
  -39.261856
  -39.305861
  -39.247955
  -39.224746
  -39.294734
  -39.334144
  -39.302693
  -39.318332
  -39.336319
  -39.310108
  -39.373328
  -39.343998
  -39.353433
  -39.279050
  -39.318520
  -39.345192
  -39.300229
  -39.349217
  -39.337211
  -39.367799
  -39.324867
  -39.279603
  -39.294411
  -39.338667
  -39.263996
  -39.387686
  -39.293718
  -39.353632
  -39.379367
  -39.309412
  -39.335810
  -39.287606
  -39.350820
  -39.344043
  -39.363679
  -39.316928
  -39.296742
  -39.325182
  -39.188127
  -39.288194
  -39.256559
  -39.297610
  -39.372675
  -39.260170
  -39.348476
  -39.182767
  -39.290242
  -39.249389
  -39.334676
  -39.306178
  -39.257269
  -39.184038
  -39.236873
  -39.359021
  -39.233877
  -39.279001
  -39.372718
  -39.278213
  -39.350893
  -39.331877
  -39.291576
  -39.343635
  -39.288655
  -39.377857
  -39.183564
  -39.323769
  -39.325485
  -39.276751
  -39.389360
  -39.274356
  -39.246222
  -39.348200
  -39.318497
  -39.287735
  -39.366610
  -39.287253
  -39.341490
  -39.320041
  -39.195969
  -39.291119
  -39.327197
  -39.297469
  -39.361901
  -39.198063
  -39.291683
  -39.218855
  -39.309592
  -39.328909
  -39.279716
  -39.378834
  -39.318457
  -39.359677
  -39.310880
  -39.317825
  -39.311612
  -39.355788
  -39.338535
  -39.238500
  -39.324326
  -39.275502
  -39.349087
  -39.367890
  -39.232574
  -39.381237
  -39.248013
  -39.331514
  -39.332701
  -39.267644
  -39.217367
  -39.162972
  -39.307439
  -39.290586
  -39.286032
  -39.247600
  -39.365343
  -39.384356
  -39.205064
  -39.313541
  -39.201008
  -39.326823
  -39.333721
  -39.282608
  -39.234459
  -39.242911
  -39.370241
  -39.306290
  -39.195193
  -39.188252
  -39.337434
  -39.191309
  -39.250513
  -39.362632
  -39.294783
  -39.299018
  -39.334724
  -39.330054
  -38.959005
  -38.911411
  -38.891076
  -39.092824
  -38.909955
  -39.038704
  -39.152118
  -39.049880
  -38.976729
  -38.970663
  -39.031288
  -38.883596
  -39.127104
  -38.871322
  -39.152283
  -38.992064
  -38.971379
  -38.885571
  -38.962754
  -38.744609
  -39.109795
  -39.147444
  -39.160375
  -39.115520
  -38.917519
  -39.275860
  -39.033258
  -39.081022
  -39.107222
  -39.056747
  -38.896544
  -39.024212
  -39.135436
  -39.067870
  -39.140003
  -38.996817
  -38.953380
  -39.053296
  -38.933489
  -39.045622
  -39.104299
  -39.000593
  -38.999978
  -39.083923
  -39.093758
  -38.813218
  -38.845767
  -38.884999
  -38.951194
  -39.178507
  -38.965215
  -38.956612
  -38.841118
  -39.055894
  -39.048606
  -39.124813
  -39.185933
  -39.088436
  -38.892601
  -39.116637
  -39.014493
  -39.202250
  -38.889569
  -38.979588
  -39.187774
  -39.066252
  -38.763234
  -39.169642
  -38.990347
  -39.109717
  -38.853926
  -39.237183
  -39.147480
  -39.143867
  -39.107067
  -38.995320
  -38.876500
  -38.982152
  -39.077435
  -39.115701
  -39.132049
  -38.862819
  -39.124363
  -39.153215
  -39.115708
  -39.059991
  -39.167434
  -38.929598
  -39.175106
  -38.870141
  -38.912542
  -39.054188
  -38.903550
  -38.915853
  -39.223906
  -38.977333
  -39.038748
  -38.939735
  -38.786677
  -39.089778
  -38.997438
  -38.884692
  -39.174428
  -38.811285
  -38.864646
  -38.995728
  -38.956365
  -39.060910
  -39.128218
  -39.037873
  -39.023244
  -39.013483
  -38.910957
  -39.123955
  -39.094083
  -39.153237
  -38.868728
  -39.007140
  -39.146440
  -38.701853
  -39.058614
  -39.072300
  -39.112305
  -39.249265
  -39.160578
  -38.827894
  -38.965728
  -39.028403
  -38.937949
  -39.043632
  -39.195782
  -38.926721
  -39.172349
  -39.145094
  -39.009310
  -39.210990
  -39.174973
  -39.119848
  -38.992376
  -38.933754
  -39.085683
  -39.123365
  -39.247324
  -39.133257
  -39.014972
  -38.756943
  -39.020789
  -38.818532
  -39.036725
  -38.761676
  -39.100684
  -39.048554
  -38.784205
  -39.107895
  -39.093521
  -39.020086
  -38.830765
  -39.088904
  -38.817537
  -38.988109
  -38.974762
  -39.173815
  -39.148824
  -38.750276
  -38.922880
  -38.947800
  -39.210991
  -39.194048
  -38.910911
  -39.110650
  -39.092993
  -39.163457
  -39.069182
  -39.091820
  -39.098100
  -38.801527
  -39.132941
  -38.740535
  -39.119220
  -38.968274
  -38.794034
  -39.034982
  -39.017256
  -38.972345
  -38.994802
  -38.976817
  -38.829786
  -39.130166
  -38.955176
  -39.077901
  -39.107445
  -38.883659
  -39.074465
  -39.119702
  -38.989989
  -39.028882
  -39.111833
  -38.925497
  -39.062114
  -38.879346
  -39.025576
  -38.956096
  -38.996823
  -38.832151
  -38.904275
  -39.113345
  -39.065804
  -38.986238
  -38.982231
  -39.002622
  -39.091172
  -39.054092
  -38.956283
  -39.198253
  -38.915806
  -39.222077
  -39.044314
  -39.213960
  -39.050960
  -38.892008
  -39.090885
  -39.104449
  -38.841647
  -38.929451
  -39.057378
  -39.206310
  -38.750808
  -39.109963
  -38.933067
  -38.896275
  -39.076999
  -39.145256
  -38.922341
  -38.875392
  -39.227412
  -39.063542
  -39.147237
  -39.151600
  -38.896378
  -39.084787
  -38.968729
  -38.884783
  -39.103367
  -38.907597
  -39.169026
  -38.876817
  -39.080161
  -39.039172
  -39.064411
  -39.021111
  -39.035690
  -38.998793
  -39.012858
  -38.841056
  -39.092796
  -39.021746
  -39.040674
  -39.142238
  -39.154764
  -38.808312
  -38.904762
  -39.103311
  -39.180497
  -38.813719
  -39.219088
  -38.872638
  -38.710101
  -38.859972
  -39.022463
  -39.093001
  -39.124537
  -39.057033
  -38.931867
  -39.118839
  -38.969656
  -39.116430
  -38.894351
  -38.970987
  -39.086535
  -39.039583
  -39.112995
  -39.078565
  -38.990470
  -38.993636
  -39.028522
  -39.073822
  -39.213039
  -38.924817
  -38.992017
  -38.898401
  -38.967970
  -39.207188
  -38.918192
  -39.028661
  -39.010371
  -39.000208
  -38.949026
  -39.147127
  -39.081626
  -38.870418
  -39.179194
  -39.057828
  -39.196902
  -39.232561
  -38.916498
  -38.821694
  -38.848697
  -38.791208
  -38.860818
  -39.138546
  -38.922652
  -38.930421
  -38.788309
  -39.165213
  -39.097902
  -38.986096
  -39.154324
  -39.031451
  -38.811924
  -39.040350
  -39.109267
  -39.105815
  -38.833821
  -38.841154
  -39.216427
  -38.893710
  -39.044726
  -38.806964
  -38.882514
  -39.102685
  -39.056449
  -39.159470
  -38.877873
  -38.953523
  -38.899548
  -39.343386
  -38.890199
  -39.080196
  -39.151062
  -38.937345
  -39.128526
  -39.203545
  -38.966074
  -38.911861
  -39.115593
  -38.869472
  -38.954821
  -39.128405
  -38.919325
  -39.076498
  -38.818409
  -39.085627
  -39.119145
  -38.713010
  -39.007375
  -39.034786
  -38.986237
  -38.866477
  -38.881634
  -38.979159
  -38.909229
  -39.092163
  -39.143175
  -39.127595
  -38.803439
  -39.053703
  -39.011648
  -39.008714
  -39.037746
  -38.752445
  -38.837738
  -39.103976
  -39.179960
  -39.208358
  -39.040242
  -39.025436
  -38.926356
  -39.052705
  -39.073821
  -38.956026
  -39.036094
  -38.757385
  -39.117478
  -38.792399
  -39.203744
  -38.996648
  -39.180066
  -38.986589
  -39.146743
  -38.787998
  -39.192144
  -38.912775
  -39.130394
  -39.048719
  -39.042157
  -39.059092
  -38.887695
  -39.004633
  -38.924135
  -39.110793
  -39.061399
  -38.941791
  -38.789305
  -38.901043
  -39.021162
  -38.934537
  -39.142339
  -39.034315
  -39.062351
  -39.036372
  -38.987265
  -38.975712
  -39.168251
  -38.794809
  -39.117230
  -39.131341
  -39.075994
  -39.022289
  -38.829778
  -39.104742
  -38.926743
  -39.008991
  -39.106970
  -38.937441
  -38.994931
  -39.321521
  -39.178103
  -39.185291
  -39.098785
  -39.211209
  -38.952842
  -39.071534
  -38.902527
  -39.148047
  -38.804364
  -39.056265
  -39.204193
  -39.083558
  -39.085792
  -39.051060
  -39.242099
  -39.125349
  -38.958902
  -38.885548
  -38.816364
  -39.076555
  -39.237489
  -38.937139
  -38.756713
  -39.089618
  -39.094838
  -39.062746
  -39.069853
  -39.143907
  -39.152954
  -38.892114
  -39.177776
  -38.968355
  -38.962564
  -38.939841
  -39.089683
  -39.155568
  -39.158771
  -38.953069
  -38.893180
  -39.009644
  -38.993584
  -38.737617
  -38.945411
  -39.115550
  -38.960391
  -39.087494
  -38.796315
  -39.092451
  -38.890406
  -39.056847
  -39.214574
  -39.153025
  -38.695940
  -38.842680
  -38.858387
  -38.800165
  -39.097824
  -39.104285
  -39.036705
  -39.076185
  -39.183332
  -39.126023
  -39.133239
  -39.036465
  -39.061353
  -39.143178
  -39.104711
  -39.159281
  -39.069983
  -39.117323
  -38.979303
  -39.162313
  -39.088685
  -38.923460
  -38.949518
  -39.049271
  -39.175255
  -38.890079
  -39.006807
  -38.750874
  -39.047012
  -39.233760
  -38.923993
  -38.977369
  -39.165603
  -38.698370
  -39.110290
  -39.250028
  -39.075754
  -38.852834
  -38.972528
  -39.050731
  -38.939927
  -38.865269
  -39.080643
  -38.948082
  -38.990668
  -38.948235
  -39.199697
  -38.854257
  -39.119980
  -38.956562
  -38.886654
  -39.169057
  -39.223960
  -38.952818
  -38.969400
  -38.770236
  -39.025226
  -38.876612
  -38.965780
  -38.824134
  -38.993378
  -39.112999
  -38.848220
  -39.154838
  -39.156067
  -38.879196
  -38.948110
  -39.157051
  -38.892564
  -38.881896
  -39.062913
  -39.107292
  -39.122319
  -39.204304
  -38.804392
  -39.123596
  -38.869757
  -39.001279
  -38.969216
  -39.093823
  -39.011772
  -39.111333
  -38.914254
  -39.000224
  -38.820493
  -38.944967
  -39.144092
  -38.990321
  -39.084422
  -39.148376
  -38.851839
  -39.072949
  -39.087247
  -39.134462
  -39.087607
  -39.230456
  -39.028700
  -39.016104
  -39.056527
  -38.982945
  -38.949285
  -38.871891
  -39.109964
  -39.035714
  -39.051565
  -38.740717
  -38.924369
  -38.941075
  -38.758900
  -38.858547
  -38.973217
  -39.045622
  -39.043873
  -39.186749
  -39.076657
  -38.783709
  -39.087178
  -39.233303
  -38.910330
  -39.087108
  -38.739200
  -38.964537
  -39.136860
  -38.949302
  -38.986413
  -38.780149
  -39.072927
  -38.600210
  -39.022778
  -39.108143
  -39.127253
  -38.914475
  -38.976371
  -38.849021
  -38.870692
  -38.994664
  -38.930337
  -39.043984
  -39.132285
  -39.173574
  -39.048915
  -39.033091
  -38.962325
  -39.021269
  -38.878085
  -38.878279
  -38.980972
  -38.959719
  -38.840094
  -39.018521
  -39.071208
  -39.164309
  -38.877408
  -39.007074
  -39.050150
  -38.905385
  -39.081905
  -38.977960
  -39.096722
  -38.963852
  -39.104900
  -38.811164
  -39.050430
  -38.897700
  -39.202051
  -39.008788
  -38.982685
  -38.873753
  -39.175686
  -39.133716
  -39.151263
  -38.982649
  -39.063642
  -38.857739
  -39.064961
  -38.896405
  -39.016656
  -38.854955
  -39.093528
  -38.898278
  -39.092741
  -39.185350
  -39.228297
  -38.946601
  -39.126175
  -39.028882
  -39.172583
  -38.824891
  -39.200242
  -39.024394
  -39.266046
  -39.151913
  -39.165519
  -39.016940
  -38.820121
  -38.875741
  -39.050889
  -39.017647
  -39.079541
  -38.981350
  -39.217316
  -39.083726
  -38.935401
  -39.007900
  -38.939940
  -38.854829
  -38.917128
  -39.004768
  -39.069673
  -39.094269
  -39.083892
  -38.941279
  -39.074326
  -39.093353
  -38.806022
  -39.157232
  -38.973643
  -38.978610
  -39.033933
  -38.804506
  -38.973125
  -38.961233
  -39.122994
  -38.974232
  -39.058774
  -39.079397
  -38.955835
  -38.733648
  -39.201010
  -38.964369
  -39.061614
  -39.055671
  -38.771601
  -39.112518
  -39.058748
  -38.997459
  -38.891276
  -39.088565
  -38.978864
  -38.747539
  -38.857914
  -39.035744
  -38.884169
  -39.206182
  -39.040224
  -39.066111
  -39.064778
  -39.068628
  -39.138171
  -38.981609
  -39.043395
  -39.070093
  -39.210155
  -39.124607
  -39.094312
  -39.067859
  -38.844644
  -38.949664
  -38.917293
  -39.122384
  -39.123874
  -39.095569
  -39.058260
  -38.971981
  -39.154887
  -38.900635
  -39.131553
  -39.014449
  -39.163655
  -39.036333
  -38.903361
  -39.124995
  -39.010354
  -38.879554
  -38.968146
  -39.086593
  -38.913508
  -39.104770
  -39.162098
  -39.000187
  -39.030918
  -39.093346
  -38.988657
  -38.798850
  -38.817909
  -39.049083
  -39.133828
  -39.289184
  -39.094717
  -38.814972
  -38.926497
  -38.907631
  -38.851310
  -38.830503
  -39.024308
  -38.902783
  -38.877866
  -39.120605
  -39.142012
  -39.022949
  -39.070607
  -38.996380
  -39.060347
  -38.857794
  -38.845661
  -39.040874
  -38.921993
  -38.853892
  -39.058627
  -38.938005
  -38.922629
  -38.813397
  -39.180000
  -39.029989
  -39.071084
  -39.037218
  -38.915748
  -39.086625
  -39.102521
  -39.059299
  -38.713517
  -39.183064
  -39.256351
  -38.951376
  -39.172833
  -38.767483
  -39.009811
  -39.050678
  -38.853323
  -38.625649
  -39.060628
  -38.955711
  -38.828638
  -39.044048
  -39.044805
  -38.955452
  -39.170055
  -38.968843
  -39.076879
  -39.117439
  -39.000289
  -38.985801
  -38.885530
  -39.205650
  -39.066821
  -38.893855
  -39.097332
  -39.041128
  -38.886734
  -39.098138
  -39.204170
  -39.160346
  -38.989150
  -39.062874
  -38.969788
  -38.935419
  -38.944582
  -38.923907
  -38.834178
  -38.828170
  -39.200316
  -39.110221
  -39.016795
  -39.168404
  -38.904957
  -39.206232
  -38.861186
  -39.062792
  -39.024739
  -39.064034
  -38.926961
  -38.920013
  -39.135962
  -38.931120
  -39.130256
  -39.159872
  -38.769211
  -39.081805
  -39.199996
  -39.142235
  -39.027937
  -38.810808
  -38.948323
  -39.091716
  -39.273129
  -38.951018
  -38.992596
  -38.895758
  -38.868132
  -39.052154
  -38.980356
  -38.947060
  -38.973317
  -38.869636
  -38.963243
  -38.923339
  -38.673670
  -38.909035
  -38.889553
  -39.076916
  -38.804913
  -38.991557
  -38.859944
  -38.996126
  -39.072183
  -38.903573
  -39.026689
  -39.179925
  -39.214528
  -38.974899
  -38.977807
  -38.961381
  -39.031241
  -38.963967
  -39.108521
  -39.066675
  -39.067636
  -38.944820
  -38.907231
  -39.119208
  -39.067659
  -38.983401
  -38.904148
  -39.034610
  -38.981141
  -38.747889
  -39.092549
  -39.007452
  -39.018123
  -38.850385
  -39.032526
  -38.843555
  -39.133416
  -39.048713
  -38.909204
  -39.016991
  -39.169864
  -39.066168
  -38.905569
  -39.014629
  -39.189613
  -38.771705
  -39.035492
  -38.766094
  -38.803920
  -38.853792
  -39.018515
  -39.259474
  -38.999795
  -39.107960
  -38.819740
  -38.971764
  -39.005119
  -39.006929
  -39.207560
  -38.923150
  -38.930545
  -39.103548
  -38.795154
  -39.174474
  -39.143063
  -38.871817
  -38.980011
  -38.870305
  -39.040354
  -39.110645
  -38.907665
  -38.747473
  -39.234489
  -38.787042
  -39.095873
  -39.086422
  -39.019589
  -39.020573
  -39.148603
  -38.788205
  -39.170704
  -39.059774
  -39.138439
  -38.955938
  -39.030915
  -38.997300
  -39.019860
  -39.028923
  -38.932410
  -39.112554
  -39.138919
  -39.078935
  -38.916180
  -39.054785
  -39.186770
  -38.737394
  -38.863760
  -38.892498
  -38.910050
  -38.898400
  -38.777586
  -39.005991
  -39.047499
  -39.052350
  -39.124128
  -39.240682
  -38.991943
  -39.111658
  -39.138490
  -38.774722
  -38.600144
  -38.441746
  -38.831463
  -38.275930
  -39.026028
  -38.804276
  -38.808072
  -38.620560
  -38.619048
  -38.800230
  -38.945150
  -38.421149
  -38.370626
  -38.694437
  -38.388769
  -38.402775
  -38.943769
  -38.587601
  -38.762894
  -38.944829
  -38.974446
  -38.497798
  -38.796885
  -38.521424
  -38.566481
  -38.281596
  -38.459251
  -38.402126
  -38.181717
  -38.750774
  -38.789360
  -38.537849
  -38.778327
  -38.444890
  -38.427301
  -38.490286
  -38.388441
  -38.654242
  -38.945815
  -38.777520
  -38.344510
  -38.751203
  -38.158075
  -38.651820
  -38.501882
  -38.629331
  -38.592733
  -38.519779
  -38.422470
  -38.788965
  -38.388091
  -38.411309
  -38.559668
  -38.456756
  -38.746608
  -38.658670
  -38.331306
  -38.852816
  -38.945499
  -38.438911
  -38.428517
  -38.717353
  -38.646659
  -38.956712
  -38.222293
  -38.611070
  -38.372450
  -38.844595
  -38.672830
  -38.311322
  -38.820682
  -38.594908
  -38.564197
  -38.493925
  -38.835019
  -38.695321
  -38.760147
  -38.752242
  -38.921644
  -38.295634
  -38.748020
  -38.580502
  -38.525312
  -38.846347
  -38.863168
  -38.487524
  -38.764613
  -38.653990
  -38.769372
  -38.844593
  -39.094057
  -38.394213
  -38.655326
  -38.563107
  -38.181190
  -38.437484
  -38.351300
  -38.885034
  -38.825612
  -38.214562
  -38.570024
  -38.894533
  -38.806345
  -38.473828
  -38.428191
  -38.480154
  -38.612492
  -38.438874
  -38.649588
  -38.577235
  -38.396364
  -38.763717
  -38.609272
  -38.766750
  -38.723118
  -38.236561
  -38.708865
  -38.777160
  -38.406061
  -38.612134
  -38.656394
  -38.790262
  -38.637059
  -38.768286
  -38.904164
  -38.527095
  -38.465522
  -38.307185
  -38.873970
  -38.521880
  -38.151437
  -38.898623
  -38.215859
  -38.594939
  -38.339118
  -38.122950
  -38.943748
  -38.551186
  -38.573320
  -38.624944
  -38.553309
  -38.698301
  -38.300894
  -38.937356
  -38.273316
  -38.894183
  -38.661647
  -38.676769
  -38.399598
  -38.576285
  -38.529906
  -38.612893
  -38.329829
  -38.482952
  -38.782584
  -38.646330
  -38.681156
  -38.635586
  -38.738042
  -38.591140
  -38.595204
  -38.711049
  -38.616217
  -38.932569
  -38.848731
  -38.696098
  -38.165601
  -38.124858
  -38.325119
  -38.528233
  -38.621404
  -38.613503
  -38.531131
  -38.488090
  -38.440965
  -38.357835
  -38.483094
  -38.598915
  -38.647003
  -38.641092
  -38.418581
  -38.756849
  -38.548319
  -38.366272
  -38.333842
  -38.790418
  -38.736171
  -38.694171
  -38.324178
  -38.688267
  -38.523367
  -38.839275
  -38.444876
  -38.683477
  -38.950359
  -38.585105
  -38.451742
  -38.787951
  -38.697775
  -38.211007
  -38.585630
  -38.690124
  -38.838679
  -38.787720
  -38.784750
  -38.655409
  -38.623251
  -38.147406
  -38.610442
  -38.409869
  -38.750889
  -38.523252
  -38.552369
  -38.539417
  -38.702774
  -38.849293
  -38.835911
  -38.871872
  -38.604430
  -38.700077
  -38.499666
  -38.820553
  -38.789631
  -38.639220
  -38.721619
  -38.687296
  -38.665449
  -38.662226
  -38.834131
  -38.483968
  -38.165273
  -38.304643
  -38.841247
  -38.638673
  -38.498619
  -38.611547
  -38.797566
  -38.537662
  -38.566940
  -38.480121
  -39.009616
  -38.681713
  -38.340110
  -38.777156
  -38.406637
  -38.622696
  -38.896211
  -39.123603
  -38.602244
  -38.706560
  -38.583985
  -38.765779
  -38.809404
  -38.137771
  -39.031406
  -38.784832
  -38.567919
  -38.476841
  -38.341036
  -38.522888
  -38.322983
  -38.411281
  -38.313450
  -38.550843
  -38.562726
  -38.624176
  -38.809923
  -38.574441
  -38.515896
  -38.387651
  -38.372981
  -38.426498
  -38.724547
  -38.972186
  -38.550450
  -38.631522
  -38.819677
  -38.170729
  -38.588537
  -38.557822
  -38.925260
  -38.856403
  -38.836957
  -38.523056
  -38.393474
  -38.777334
  -38.772028
  -38.280645
  -38.764527
  -38.254362
  -38.748283
  -38.499723
  -38.740327
  -38.703809
  -38.383072
  -38.807202
  -38.586485
  -38.965532
  -38.455537
  -38.448830
  -38.394053
  -38.857904
  -38.572097
  -38.592286
  -38.676813
  -38.897042
  -38.550045
  -38.526450
  -38.809415
  -38.413387
  -38.743996
  -38.898391
  -38.301402
  -38.676244
  -38.729963
  -38.697916
  -38.224941
  -38.535197
  -38.297566
  -38.415139
  -38.674191
  -38.655155
  -38.571399