   -0.451100     0.323495    -0.829051     0.469446    -0.345533     0.304419    -0.018346     0.022038     0.524632 
    0.290018    -0.087016     0.523191    -0.511491    -0.122652    -0.253940     0.221472     0.209668    -0.269251 
   -0.044311     0.112838    -0.191951    -0.344385    -0.210191     0.313813     0.388696     0.097353    -0.121862 
   -0.085829    -0.011690     0.093331     0.337492     0.068923    -0.998715    -0.251662    -0.057233     0.905385 
   -0.531289     0.169225     1.460786     0.451119    -0.115684     0.243065     0.080170    -0.053542    -1.703851 
    0.112581    -0.337532     0.471269    -0.185664    -0.110504     0.410132     0.073083     0.448036    -0.881401 
   -0.424607    -0.493249     0.765988     0.702120     0.233438    -0.983611    -0.277513     0.259811     0.217623 
    0.439540     0.047202     0.465045    -0.318236    -0.059353     0.019172    -0.121304     0.012151    -0.484217 
   -0.241155     0.313784    -0.133422     0.230619    -0.238342     0.977779     0.010536    -0.075442    -0.844357 
   -0.558987     0.358800     0.456505     0.022099     0.157130     0.528302     0.536888    -0.515930    -0.984806 
   -0.263867    -0.614369     1.347393    -0.274654     0.198972    -0.657957     0.538521     0.415397    -0.689436 
   -0.191008    -0.091689     0.234230     0.563861    -0.094586    -1.746735    -0.372853     0.186275     1.512505 
   -0.522667     0.037468    -0.053940     0.329933     0.199130    -0.083218     0.192734    -0.236597     0.137158 
   -0.273507     0.541162     0.083527     0.084075    -0.488868     0.009738     0.189432    -0.052293    -0.093265 
    0.427900    -0.146124     0.934934     0.130689    -0.012684    -0.378690    -0.558590     0.158808    -0.556245 
    0.415200    -0.004272    -0.566367    -0.204139     0.062188     1.631963    -0.211061    -0.057916    -1.065596 
   -0.062893    -0.457958     0.250784     0.061388     0.051082     0.464861     0.001504     0.406875    -0.715644 
   -0.398134     0.025197    -0.194600     0.598815    -0.103008    -0.746273    -0.200681     0.077811     0.940873 
    0.020356    -0.005148    -0.283902    -0.022599    -0.012594     0.447442     0.002243     0.017743    -0.163540 
    0.010668    -0.112479    -1.158648    -0.016698     0.112282     0.118663     0.006029     0.000197     1.039985 
    0.390645     0.506713     0.670032     0.005636    -0.463972    -0.842130    -0.396281    -0.042741     0.172098 
   -0.285901    -0.130225     1.216892     0.272291     0.299204    -0.550989     0.013610    -0.168979    -0.665903 
    0.071718    -0.256543     0.107600    -0.027226     0.314322     0.870866    -0.044492    -0.057779    -0.978466 
   -0.392778    -0.370346     0.032273     0.326949     0.226407     0.789317     0.065829     0.143939    -0.821590 
    0.147891     0.061531     0.027638    -0.461497    -0.191839    -0.592134     0.313605     0.130308     0.564496 
    0.241143    -0.085493    -0.164586    -0.175339     0.088025     1.018885    -0.065804    -0.002532    -0.854299 
    0.030436    -0.054952    -0.087424     0.156274    -0.086030     0.157921    -0.186710     0.140983    -0.070497 
    0.210742     0.167495     0.262603    -0.267634    -0.195048     0.172275     0.056893     0.027553    -0.434878 
    0.049167    -0.048359    -0.542157    -0.271079    -0.007844     0.156349     0.221912     0.056203     0.385809 
   -0.280141     0.402556    -0.219232     0.740624    -0.487441    -0.512014    -0.460482     0.084886     0.731246 
   -0.108249    -0.080810    -0.189678    -0.266034    -0.017111     0.057039     0.374283     0.097921     0.132639 
    0.177605    -0.411367    -0.135718    -0.188929     0.259848     0.945283     0.011324     0.151519    -0.809565 
   -0.177359    -0.345554     1.257064     0.540864     0.413147    -1.550507    -0.363505    -0.067593     0.293443 
    0.082860    -0.437957     1.210948    -0.059277     0.163078    -0.018055    -0.023583     0.274878    -1.192892 
    0.370014     0.510830    -0.361838    -0.024633    -0.551924    -0.034386    -0.345381     0.041094     0.396224 
   -0.287583     0.050054    -0.106361     0.473939    -0.220440    -0.151890    -0.186356     0.170386     0.258251 
   -0.142555    -0.103366    -1.215057     0.184995     0.401441    -0.001311    -0.042440    -0.298075     1.216367 
   -0.095999    -0.291258    -1.056658     0.115356     0.525476    -0.029362    -0.019357    -0.234218     1.086021 
    0.570710     0.355348    -0.704658    -1.017116    -0.580908    -0.629527     0.446406     0.225560     1.334185 
    0.190923    -0.423718    -0.928613    -0.279884     0.381790     0.368162     0.088962     0.041928     0.560450 
    0.472467     0.115337    -0.300259    -0.644416    -0.203237    -0.392325     0.171949     0.087900     0.692585 
    0.336516     0.076297     0.932726    -0.019667     0.124042    -0.846506    -0.316849    -0.200338    -0.086220 
   -0.173143    -0.261081    -0.474737     0.194446     0.465415    -0.628692    -0.021303    -0.204334     1.103429 
    0.361448    -0.040797     1.507111     0.253724    -0.103876    -0.805076    -0.615171     0.144673    -0.702035 
    0.491350    -0.090556     0.034121    -0.474092    -0.293047    -0.938070    -0.017259     0.383603     0.903949 
    0.002768    -0.280294    -0.587344     0.224059     0.424888    -0.218611    -0.226827    -0.144594     0.805955 
   -0.381642     0.018148     0.972543     0.947083    -0.512710    -1.063088    -0.565441     0.494563     0.090545 
   -0.429774    -0.159131    -0.109598     0.472938     0.247006    -0.495250    -0.043164    -0.087876     0.604848 
   -0.121468     0.071679     0.939221     0.151720     0.118146     0.474776    -0.030253    -0.189825    -1.413997 
   -0.199577     0.022739    -1.159412     0.203222     0.048938     0.488930    -0.003645    -0.071677     0.670482 
    0.123556     0.312750     0.203250    -0.182658    -0.301741    -0.060573     0.059103    -0.011008    -0.142677 
   -0.163004     0.369821     0.594112     0.378172    -0.466715    -0.431824    -0.215168     0.096893    -0.162288 
   -0.184520    -0.279764    -0.642466     0.161781     0.667662     0.159436     0.022739    -0.387898     0.483029 
    0.322877    -0.589109     0.915060    -0.249504     0.078260     1.231484    -0.073374     0.510849    -2.146545 
    0.228751     0.257193     0.084471    -0.835261    -0.448478    -1.376403     0.606509     0.191285     1.291931 
    0.020611    -0.666053    -0.249492     0.004637     0.345133     1.683453    -0.025248     0.320920    -1.433961 
   -0.002949     0.338933    -0.361345    -0.246398    -0.377963    -0.092031     0.249347     0.039029     0.453377 
   -0.124572     0.024834    -0.200499     0.453306     0.611624    -1.303109    -0.328734    -0.636458     1.503608 
   -0.190314     0.270042    -0.677799     0.273875    -0.306956     0.738777    -0.083561     0.036914    -0.060978 
    0.088510    -0.183207     0.542313     0.114811     0.095870    -1.381886    -0.203321     0.087337     0.839573 
    0.557146    -0.145378    -0.300441    -0.452889     0.333089     0.264746    -0.104256    -0.187711     0.035695 
   -0.009963    -0.003431     0.318204    -0.014128    -0.280378    -0.397486     0.024091     0.283809     0.079282 
    0.112942     0.652626     1.366495     0.053648    -0.206217    -0.008256    -0.166590    -0.446409    -1.358239 
    0.128878     0.736662     1.285605     0.401078    -0.714472    -2.073303    -0.529956    -0.022190     0.787698 
    0.123809    -0.245020     0.667170    -0.115585     0.042807     0.820045    -0.008224     0.202213    -1.487216 
    0.144656     0.336739    -0.484775    -0.162780    -0.331738     0.776968     0.018124    -0.005000    -0.292193 
    0.114349    -0.357124    -0.246440    -0.131749     0.335608     0.042182     0.017400     0.021516     0.204258 
    0.295795     0.514764    -0.124538    -0.296735    -0.746273    -1.229792     0.000941     0.231508     1.354330 
   -0.189779    -0.675275     0.419359     0.159395     0.342402     0.919675     0.030384     0.332873    -1.339034 
    0.033505    -0.900170     1.068337    -0.092265     0.396680     0.429238     0.058759     0.503490    -1.497575 
   -0.233350    -0.213066    -0.292055     0.276947     0.102344     0.810811    -0.043597     0.110723    -0.518756 
    0.029028     0.096462     2.147289    -0.038720     0.491419    -0.703807     0.009692    -0.587881    -1.443483 
    0.197127    -0.014271    -1.040685    -0.253399     0.022032    -0.008877     0.056272    -0.007760     1.049562 
   -0.123720     0.482939     0.146743     0.188379    -0.582356    -0.627441    -0.064659     0.099417     0.480698 
   -0.407002    -0.113777    -0.853268     1.014670    -0.333564    -0.383418    -0.607667     0.447341     1.236686 
    0.138877    -0.127121     0.995988    -0.324993    -0.070895     0.115150     0.186116     0.198016    -1.111138 
   -0.135378    -0.121913    -0.874118     0.138284     0.305410     0.397166    -0.002906    -0.183497     0.476952 
   -0.550108    -0.284787     0.678637     0.308909     0.226850     0.891141     0.241199     0.057936    -1.569778 
   -0.282989    -0.068036     0.406464    -0.243552    -0.039475     0.254318     0.526542     0.107511    -0.660782 
   -0.164232     0.372367    -0.153850     0.114085    -0.319012     0.772585     0.050147    -0.053355    -0.618735 
   -0.133952     0.435909    -0.115883     0.550711    -0.934992    -1.686523    -0.416760     0.499082     1.802406 
    0.077199     0.085516     0.054398    -0.344745    -0.107957     0.337297     0.267546     0.022442    -0.391695 
   -0.012003    -0.193334    -0.466304     0.302030    -0.305002    -1.001620    -0.290027     0.498336     1.467924 
    0.076557    -0.182199     0.445782    -0.073862    -0.070712     0.468250    -0.002695     0.252911    -0.914032 
    0.485791     0.038537     0.547421     0.108076     0.399764    -0.425966    -0.593868    -0.438301    -0.121455 
    0.178715    -0.541764     1.266554    -0.140291     0.333607     0.347654    -0.038425     0.208156    -1.614208 
    0.231359     0.744854     1.576688    -0.063492    -0.523089    -0.796672    -0.167867    -0.221765    -0.780016 
   -0.092179     0.439514     2.088071     0.496686     0.375236    -1.269430    -0.404506    -0.814751    -0.818641 
   -0.294280     0.074210     0.927110     0.006173    -0.110334     0.598495     0.288107     0.036123    -1.525605 
    0.291277    -0.674750     0.228198    -1.078134    -0.123073    -1.546828     0.786857     0.797823     1.318630 
    0.185811     0.260204    -0.284313    -0.152655    -0.469592    -1.321517    -0.033156     0.209388     1.605831 
    0.512797    -0.395311     0.717154    -1.163631    -0.325860    -1.128986     0.650834     0.721170     0.411832 
    0.375053    -0.008372     0.324197    -0.367979     0.084998    -1.230258    -0.007074    -0.076625     0.906061 
    0.532772    -0.070249    -0.026435    -0.824895    -0.220225    -0.180052     0.292123     0.290475     0.206488 
   -0.159871     0.615867     0.329335    -0.169244    -0.506629     0.198004     0.329115    -0.109238    -0.527339 
   -0.211890    -0.031159    -0.718186    -0.009261     0.280699    -0.229231     0.221152    -0.249540     0.947417 
    0.009208    -0.682224     0.799109     0.067702     0.554446    -1.130272    -0.076911     0.127777     0.331163 
    0.379634    -0.310228     0.447802    -0.271899     0.180584     0.809494    -0.107735     0.129644    -1.257296 
    0.768460     0.244674     0.781775    -0.366574    -0.136020     1.497188    -0.401886    -0.108654    -2.278962 
   -0.187217    -0.003218     0.501701     0.127583     0.110874     0.269776     0.059634    -0.107656    -0.771477 
    0.456386     0.320867     1.150125     0.446057    -0.453775    -0.888435    -0.902443     0.132908    -0.261690 
    0.466339     0.646584     0.578503    -0.017748    -0.506944    -0.417926    -0.448591    -0.139640    -0.160577 
    0.518536    -0.012633     1.703085    -0.002833    -0.065498     0.507103    -0.515703     0.078130    -2.210187 
    0.244708     0.363175     0.671141     0.130628     0.101688    -0.649579    -0.375335    -0.464863    -0.021562 
   -0.273500    -0.123730     0.734307     0.078356     0.242639     0.405104     0.195144    -0.118909    -1.139410 
    0.031993     0.498870     0.649740     0.291423    -0.742149    -1.253889    -0.323416     0.243280     0.604149 
    0.196265     0.179159     0.445190     0.045057    -0.221332    -0.104890    -0.241322     0.042173    -0.340300 
    0.128732    -0.875106     0.947989    -0.054663     0.499414    -0.857307    -0.074068     0.375692    -0.090682 
   -0.345657     0.023116     0.174039     0.456681    -0.057786    -0.571133    -0.111023     0.034670     0.397094 
   -0.303900    -0.848421     1.515108     0.186564     0.338266    -0.888070     0.117336     0.510155    -0.627038 
    0.222698    -0.172087     0.068427    -0.120884     0.122423     1.531156    -0.101815     0.049664    -1.599584 
    0.072145    -0.585550     0.790734    -0.014414     0.274588     1.189391    -0.057731     0.310962    -1.980126 
    0.386680     0.497457    -0.149727    -0.355862    -0.421419     0.840719    -0.030817    -0.076038    -0.690992 
   -0.340276     0.349897    -1.126757     0.271725    -0.558977    -0.320961     0.068551     0.209080     1.447718 
    0.183691     0.575466     0.099298    -0.268819    -0.590905    -0.266217     0.085128     0.015439     0.166919 
   -0.050522    -0.260964    -1.571690    -0.053804     0.924790    -1.078851     0.104326    -0.663826     2.650541 
    0.035432    -0.228771     0.759282     0.025947     0.201943     0.121152    -0.061379     0.026828    -0.880434 
    0.174090    -0.382777    -0.787983    -0.203633     0.741700    -0.380845     0.029543    -0.358923     1.168827 
    0.049282    -0.494614    -0.638204    -0.124617     0.478930    -0.012514     0.075334     0.015684     0.650718 
    0.055585    -0.070249     0.463810    -0.043726     0.467454    -1.406389    -0.011859    -0.397205     0.942579 
    0.089316    -0.231452     0.842175     0.013418     0.064721     1.081438    -0.102734     0.166731    -1.923613 
   -0.402050     0.118505     1.086469     0.385976    -0.120475    -0.516064     0.016074     0.001971    -0.570405 
   -0.926457     0.713172     0.917238     0.289468    -0.557828    -0.534505     0.636989    -0.155344    -0.382733 
   -0.194211    -0.131513    -0.429163     0.172379     0.009592    -0.036127     0.021831     0.121921     0.465290 
   -0.323996    -0.121209    -0.370907     0.445449     0.138786    -0.872370    -0.121453    -0.017577     1.243277 
    0.320627    -0.973280     1.291788    -0.288795     0.903391    -1.039123    -0.031832     0.069889    -0.252665 
   -0.082907     0.125795    -0.889979     0.151016    -0.200834    -0.129453    -0.068109     0.075039     1.019432 
    0.114145    -0.561914    -0.014556    -0.143621     0.593987    -0.359613     0.029476    -0.032073     0.374170 
    0.513196    -0.726628     1.389756    -0.296015     0.103130    -0.430696    -0.217180     0.623498    -0.959060 
    0.059577    -0.621336     0.269066    -0.030253     0.635905    -0.034558    -0.029324    -0.014569    -0.234508 
    0.330826    -0.173160    -0.700717    -0.279668     0.287086     0.593511    -0.051158    -0.113926     0.107206 
   -0.020344    -0.214549    -0.524248     0.177524     0.478090    -1.198825    -0.157180    -0.263541     1.723073 
    0.477817    -0.139450     0.341743    -0.506312     0.082621    -0.189444     0.028495     0.056830    -0.152299 
   -0.167815    -0.670192     1.053109     0.749152    -0.090555    -1.605191    -0.581337     0.760748     0.552082 
   -0.123995    -0.515591    -0.344638     0.014516     0.588076    -0.248544     0.109479    -0.072485     0.593182 
    0.104647     0.179211    -1.352997    -0.107585    -0.245163     1.053272     0.002938     0.065952     0.299725 
    0.534822    -0.314797     1.069023    -0.687202     0.168187    -0.888566     0.152380     0.146610    -0.180457 
    0.008537    -0.176023     0.406461     0.262645     0.667119    -1.730766    -0.271182    -0.491095     1.324306 
    0.550670    -0.287883     1.024506    -0.205299     0.296948     0.842384    -0.345371    -0.009066    -1.866891 
   -0.151979     0.202538    -0.135259     0.134115     0.249591    -0.940772     0.017864    -0.452129     1.076031 
   -0.249940    -0.240259    -0.983331     0.253714     0.292448     0.484912    -0.003775    -0.052190     0.498419 
   -0.325402     0.115490     0.322466     0.219877    -0.155274     0.303888     0.105525     0.039784    -0.626354 
   -0.251409     0.262219     0.761866     0.173682    -0.116002    -0.361951     0.077727    -0.146217    -0.399915 
   -0.107420    -0.490277    -0.411460     0.294065     0.619535    -1.516600    -0.186645    -0.129259     1.928060 
   -0.504099    -0.288450     1.685784     0.041903     0.182569    -0.047972     0.462195     0.105882    -1.637813 
   -0.145282    -0.107603    -1.055676     0.130540     0.118557     0.961482     0.014742    -0.010955     0.094194 
   -0.258018     0.157636    -1.128993     0.339465    -0.128727     0.080622    -0.081447    -0.028909     1.048371 
   -0.072638    -0.980161     1.307064    -0.308533     0.168823     0.166200     0.381171     0.811337    -1.473264 
    0.129811     0.114453     0.078537    -0.575483    -0.434534    -0.238834     0.445672     0.320081     0.160297 
    0.225222     0.401591    -1.477684    -0.519570    -0.640858    -0.013759     0.294348     0.239266     1.491443 
    0.536824     0.271413     1.068123    -0.251655    -0.101097     0.010481    -0.285170    -0.170316    -1.078604 
   -0.119922    -0.074741    -0.245482     0.093282     0.270878    -0.555048     0.026640    -0.196136     0.800530 
    0.080256    -0.112200    -1.351280    -0.175047     0.275529    -0.500298     0.094791    -0.163329     1.851578 
   -0.540312    -0.251417     0.532489     0.664834     0.306659    -0.640414    -0.124523    -0.055242     0.107925 
   -0.233700    -0.022749     0.953568    -0.155109     0.088772     0.001763     0.388809    -0.066023    -0.955331 
    0.025100    -0.112519    -1.476919    -0.009454     0.144127     0.854872    -0.015646    -0.031608     0.622047 
   -0.318628     0.199028     0.620594     0.230828    -0.118287    -1.842355     0.087800    -0.080741     1.221762 
    0.262560     0.307123    -0.049063    -0.290790    -0.260300    -0.650481     0.028230    -0.046823     0.699544 
    0.098060     0.434445    -0.653746     0.066081    -0.536616    -0.037820    -0.164141     0.102171     0.691566 
    0.073998    -0.141007     1.608804     0.047682     0.264755    -0.523648    -0.121680    -0.123748    -1.085156 
   -0.189964     0.290134     0.970126    -0.287541    -0.265328    -1.448654     0.477505    -0.024806     0.478528 
   -0.140447     0.633614     0.800697    -0.010062    -0.517432    -0.101982     0.150509    -0.116182    -0.698715 
    0.268109    -0.765072     1.641584    -0.449604    -0.140858     0.082725     0.181494     0.905929    -1.724310 
   -0.160894    -0.505853    -0.461126     0.166305     0.415362     0.477774    -0.005411     0.090491    -0.016648 
    0.082928     0.058764    -0.164856    -0.285774    -0.089583    -0.931498     0.202846     0.030819     1.096353 
    0.114164     0.443173     0.464452    -0.409794    -0.445791    -0.312394     0.295630     0.002618    -0.152058 
   -0.255022     0.346535     0.515195     0.339493    -0.336501     0.620975    -0.084471    -0.010034    -1.136170 
    0.305067    -0.028167     0.689135    -0.407039     0.116308    -0.874507     0.101972    -0.088141     0.185373 
   -0.277263     0.520326     1.217568     0.173124    -0.484033    -0.678653     0.104139    -0.036292    -0.538915 
    0.529391    -0.430667     0.691124    -0.500425    -0.041655     0.622183    -0.028966     0.472321    -1.313307 
    0.064099    -0.162639    -0.254853    -0.571559    -0.300315    -0.554186     0.507461     0.462953     0.809039 
    0.699427     0.364954     0.689072    -0.433718    -0.188037     0.425194    -0.265709    -0.176917    -1.114265 
    0.334119     0.198970    -0.138208    -0.675114    -0.472166    -1.278043     0.340996     0.273196     1.416251 
   -0.203323    -0.154717    -0.501678     0.150832     0.152997     1.322442     0.052490     0.001720    -0.820764 
    0.218972     0.039993     0.469802     0.232036    -0.141304    -0.439371    -0.451007     0.101311    -0.030431 
   -0.325792     0.200772     1.290198     0.397193    -0.081574    -0.778727    -0.071401    -0.119198    -0.511471 
   -0.200103    -0.228090    -0.130069     0.147719    -0.011957     1.554496     0.052384     0.240046    -1.424427 
    0.051828     0.310608    -0.367755    -0.199160    -0.768379    -1.865092     0.147332     0.457771     2.232847 
    0.099654    -0.352858     0.081516    -0.195627     0.661839    -0.390431     0.095974    -0.308981     0.308915 
    0.255905    -0.095113     0.220241    -0.386891     0.338241    -0.472489     0.130987    -0.243128     0.252247 
    0.354773    -0.303918     0.433252    -0.344105     0.070075     0.123243    -0.010667     0.233843    -0.556494 
    0.230876    -0.625439    -0.155574    -0.208193     0.521046     0.289663    -0.022683     0.104393    -0.134089 
    0.362980     0.129650     1.504531    -0.210377    -0.112204     0.648917    -0.152603    -0.017447    -2.153448 
   -0.742105     0.110778     0.621480     0.446507     0.549125    -0.882954     0.295598    -0.659903     0.261474 
   -0.414976     0.444942    -0.517235     0.226401    -0.384396     0.746980     0.188575    -0.060545    -0.229745 
    0.097147     0.219313     0.740184    -0.063152    -0.088419    -0.050506    -0.033996    -0.130894    -0.689678 
    0.414705    -0.299902    -1.164999    -0.488229     0.546922    -0.005598     0.073524    -0.247021     1.170597 
    0.194918    -0.362898    -0.454020    -0.586048     0.003208    -0.941639     0.391129     0.359690     1.395660 
    0.026233     0.239901    -0.666027     0.113893    -0.302622    -0.014435    -0.140127     0.062721     0.680462 
    0.099328     0.223796    -0.176721    -0.214499    -0.107766     0.846995     0.115171    -0.116031    -0.670274 
    0.029099    -0.198395     1.013778    -0.372762    -0.347534    -0.085430     0.343663     0.545929    -0.928348 
   -0.114569    -0.701943    -0.274789     0.127339     0.684464    -0.022185    -0.012770     0.017479     0.296973 
   -0.576992    -0.472860     0.594677     0.874004     0.036995    -0.877645    -0.297012     0.435866     0.282968 
    0.211437     0.245330    -0.752302    -0.174861    -0.356446     0.087714    -0.036576     0.111116     0.664588 
   -0.044395     0.225207    -0.040575     0.029453    -0.249107    -0.151048     0.014942     0.023900     0.191623 
   -0.040958     0.306908    -0.722014     0.115618    -0.438951    -0.972689    -0.074660     0.132043     1.694703 
    0.550999     0.130355    -0.732572    -0.354793     0.032939     1.089402    -0.196206    -0.163293    -0.356829 
   -0.295661    -0.279125     0.274498     0.254319     0.031041     0.738319     0.041342     0.248084    -1.012817 
   -0.309758     0.024337    -0.312232     0.308302     0.038264    -0.247609     0.001456    -0.062601     0.559840 
    0.159626    -0.377743     1.190642     0.230282     0.732246    -1.346974    -0.389909    -0.354503     0.156332 
    0.551409     0.590587     0.570019     0.061239    -0.447095    -0.321717    -0.612648    -0.143493    -0.248302 
   -0.138236     0.008972    -0.251955    -0.026281    -0.101984    -0.610160     0.164518     0.093012     0.862116 
   -0.602056     0.455427     0.417969     0.398757    -0.367763    -0.377474     0.203299    -0.087664    -0.040495 
    0.083909     0.053869    -1.124597    -0.128482    -0.202995     0.103942     0.044572     0.149126     1.020655 
    0.804956     0.095464     1.699637    -0.457758    -0.138985    -0.563432    -0.347198     0.043520    -1.136206 
    0.237030    -0.028053    -0.732192    -0.018341     0.024167     0.147928    -0.218690     0.003886     0.584264 
   -0.395421    -0.678570     0.120813     0.293599     0.311826     1.272855     0.101822     0.366744    -1.393668 
    0.421819    -0.228032     1.503603    -0.336488     0.135989    -0.023183    -0.085331     0.092043    -1.480420 
   -0.294550    -0.542247     0.633637     0.214145     0.549294    -0.221032     0.080405    -0.007047    -0.412605 
   -0.437600    -0.573745     0.561815     0.411954     0.244353     0.437662     0.025646     0.329392    -0.999478 
   -0.375047    -1.017701     1.794362     0.263772     0.887749    -1.298576     0.111275     0.129951    -0.495786 
    0.299263     0.669858     0.239556     0.101081    -0.522554     0.459528    -0.400344    -0.147304    -0.699083 
   -0.121777     0.036734    -0.209035    -0.016652     0.234700    -0.475040     0.138429    -0.271434     0.684075 
   -0.050190    -0.868278     0.568900     0.107265     0.434851    -0.022960    -0.057075     0.433426    -0.545940 
   -0.315394     0.135940     0.490101     0.141922    -0.039743     0.855292     0.173473    -0.096197    -1.345393 
   -0.491579     0.347940     0.865085    -0.139421    -0.136776    -1.819173     0.631000    -0.211163     0.954088 
    0.070180     0.588681     1.002806    -0.439154    -0.317945    -0.013562     0.368974    -0.270736    -0.989245 
   -1.144558     1.102465     1.468295     0.069241    -0.600581     0.034287     1.075317    -0.501885    -1.502582 
    0.380327     0.396572     1.305061     0.050326    -0.349832    -0.145638    -0.430653    -0.046739    -1.159423 
   -0.398670    -0.319572    -0.683290     0.626833     0.209839    -0.171707    -0.228162     0.109734     0.854997 
    0.048975    -0.483632    -0.308362    -0.073092     0.166689     1.156519     0.024116     0.316943    -0.848157 
   -0.680460     0.755574     1.444794     0.231631    -0.330417     0.968578     0.448828    -0.425156    -2.413372 
    0.564928     0.158551    -0.420734    -0.639158    -0.128906    -0.137608     0.074230    -0.029645     0.558342 
   -0.298772    -0.349672    -0.763883     0.405535     0.326069     0.013362    -0.106763     0.023604     0.750522 
   -0.240237    -0.230132    -0.781968     0.256277     0.201225     0.577526    -0.016040     0.028907     0.204442 
    0.023577    -0.345217    -0.113501     0.093799     0.583471    -0.624832    -0.117376    -0.238253     0.738333 
   -0.345002    -0.197056    -0.450998     0.413580     0.333572    -0.028046    -0.068578    -0.136516     0.479044 
   -0.130675     0.000491     0.006666     0.112513     0.121897    -0.165230     0.018162    -0.122388     0.158564 
   -0.069290    -0.323061     1.145532     0.026550    -0.094631    -1.748476     0.042740     0.417692     0.602944 
   -0.397315     0.009645    -0.768006     0.698399     0.006554    -0.674671    -0.301084    -0.016198     1.442676 
    0.125753     0.196344    -0.959974    -0.159662    -0.191157     0.913159     0.033910    -0.005187     0.046814 
   -0.365016    -0.161026    -1.626008     0.451949     0.464716     0.107757    -0.086933    -0.303690     1.518251 
    0.051540    -0.268082    -0.941985    -0.102564     0.232254     0.211830     0.051024     0.035828     0.730154 
   -0.715882     0.127766     0.604697     0.352849     0.117491     0.728720     0.363033    -0.245257    -1.333417 
    0.360224     0.152485     0.202320    -1.120163    -0.644348    -1.481409     0.759939     0.491862     1.279089 
   -0.235220    -0.338553    -0.264455     0.414569     1.336356    -1.801987    -0.179349    -0.997803     2.066442 
    0.065832    -0.070176    -1.053603    -0.128767     0.076175    -0.174314     0.062935    -0.005999     1.227917 
   -0.149801     0.161694    -1.078656    -0.022958    -0.089011    -0.012025     0.172759    -0.072683     1.090681 
   -0.335508     0.745642     1.338276    -0.260408    -0.560836    -0.575241     0.595916    -0.184806    -0.763035 
    0.079180    -0.404392     0.589125     0.201297    -0.230229     0.065214    -0.280477     0.634621    -0.654339 
    0.749681     0.430327     1.117201     0.124832    -0.015561    -0.853654    -0.874512    -0.414765    -0.263547 
   -0.391065     0.423316     1.776274     0.500857    -0.522089    -0.854964    -0.109792     0.098773    -0.921310 
    0.467988     0.886131     1.252564    -0.117308    -0.423282     1.116759    -0.350680    -0.462849    -2.369323 
    0.152932     0.018758     0.734255    -0.015439    -0.043396    -0.792299    -0.137493     0.024638     0.058044 
    0.045921    -0.390812    -0.762314    -0.097259     0.296673     1.093890     0.051338     0.094139    -0.331576 
    0.556037     0.110935    -0.462907    -0.569665    -0.082439     0.112139     0.013629    -0.028496     0.350768 
    0.725811     0.707749     1.695270    -0.311790    -0.343877     0.338379    -0.414021    -0.363872    -2.033650 
    0.246192    -0.210670    -0.865111    -0.446105     0.420733    -1.136639     0.199913    -0.210062     2.001750 
   -0.160219    -0.465191     1.148232    -0.025906     0.656165    -0.619915     0.186125    -0.190974    -0.528317 
   -0.089892    -0.247603    -0.930336     0.116105     0.554835    -0.478578    -0.026213    -0.307232     1.408914 
    0.120261     0.239578    -0.910566    -0.133062    -0.251618     1.110065     0.012802     0.012040    -0.199499 
   -0.144296    -0.455397     0.028165     0.078154     0.554716    -0.378151     0.066142    -0.099319     0.349986 
   -0.026565     0.353034     1.166412     0.457147    -0.191908    -1.336258    -0.430582    -0.161126     0.169846 
   -0.178602    -0.106218    -0.153121     0.848601    -0.559932    -1.293384    -0.669999     0.666150     1.446505 