   16.861580    10.101930    10.103510     3.479340     9.798860     9.938020     7.118410     9.993450    10.090360     1.614040     1.121960     9.920330     5.108830     1.054280     9.941080    16.951520     4.065880     9.952980     3.528100     3.992480    10.002950     7.409950     4.130460    10.288530     1.519480     6.978020     9.961480     5.238460     6.844430    10.130630     1.722700    10.932740     1.131450     5.096850    10.882690     1.077720    17.006830     1.997550     1.347470     3.369620     2.023810     1.158520     6.908700     1.825720     1.196350     1.720380     4.988640     1.261460     5.072240     4.907150     1.326080    16.906780     7.963310     1.205440     3.358990     8.014270     1.124140     7.217600     7.730080     1.199140    17.036760    10.001720     4.163500     3.577250     9.766790     4.101490     6.998900     9.994260     4.186590     1.519420     1.064870     4.245640     5.169350     0.987630     4.200880     0.027120     4.087940     4.369350     3.512010     3.784500     4.431130     7.077100     3.999430     4.245280     1.761580     6.850850     4.166120     5.212320     6.976210     4.356350     1.681440    10.800820     6.889970     5.164490    10.853600     6.910870    16.857780     2.240070     7.034800     3.403870     2.004730     7.021080     7.022990     1.999990     6.847530     1.714560     5.196130     7.096100     5.239260     4.930540     6.935060    16.892760     8.002400     6.748670     3.534150     7.971220     7.079560     7.020000     7.685700     7.095290     0.108390     0.265370    11.464060     3.431340    11.617210    11.141900     6.806760     0.147020    11.251790     1.778230     3.000540    11.372010     5.066870     2.939530    11.373540     0.052630     5.797730    11.481420     3.352140     6.227020    11.491990     6.677500     5.762390     0.059050     1.284570     8.973530    11.439160     5.638390     8.831740    11.483290    17.031730     0.330790     5.759310     3.439000    11.661020     5.405580     6.894470     0.022190     5.580950     1.719250     3.188530     5.742660     5.165710     2.793590     5.812480     0.052240     5.958210     5.561160     3.531200     6.172720     5.816130     6.860670     5.841040     5.625740     1.484470     8.928430     5.334600     5.567710     8.916480     5.735200     8.446960     0.955720     4.354260     8.375400    11.113410     1.133840    10.271990     0.048340     8.151270     8.159920     4.970520     1.434230    13.444110     1.376970     0.507410    13.489950     4.352880     4.487820    12.208150     3.670540     0.365900    12.431610     1.934940     8.001070    10.537350     4.680810     4.756400     9.939940     2.900690     1.744850    13.272380     1.878880     5.195870     8.298670     6.770820     4.287610    13.317610     6.089600     0.977260    10.506380     2.138460     5.048510     9.962080     8.579030     5.577090    11.286900     8.439690     3.272350    11.744350    11.698430    10.631550    15.373580     5.025220     6.578730     8.663560     5.069700     6.605270     8.285170     1.201190     9.997950    11.755660     4.278190     9.405520     9.664380     5.921520     9.246560    14.077630    11.796420     8.674600    15.454100     1.294650    10.498040    11.518200     9.483100     0.522600    10.672820     6.109150     2.286510    13.755210     5.793670     8.463080    13.420540     8.514550     7.457630    14.141720     9.306030    11.178140     8.197840    10.994530     7.011770     9.994310     8.405080    10.280280    11.043470     9.364770     8.025730    13.855230     8.849510     4.633350    15.544580    11.081140     6.706550    15.434570    11.406620     1.226290    15.937400     4.963080     1.427980    15.613470     6.797980     4.110280    15.662670     1.031370     4.367890    15.132440     6.550040    10.746600     9.209690     1.430800     4.794120     7.954120     1.722570     3.910450    11.335610     3.565120     0.840320    10.026530     0.047180     9.062270    14.148340     4.624050     5.205360    13.854580     4.705300     3.673610    12.709250     2.829920     0.465460     8.545160    10.251240     0.790160     8.126560    11.021940     2.084160    12.678430     0.839530     0.146400    13.847120     0.973120     1.267010    12.180450     2.739130     8.557580    15.822890     4.209450     6.848590     7.939400     7.208400     3.493940    11.522990     4.884400     4.644960    10.527220     3.135950     4.968250     9.163790     2.294730     1.472700    10.173510     2.506570     2.643690     8.762980     7.486800     4.748480    12.226490     8.235080     3.150640    13.292300     5.106150     0.824320    11.161180     9.076010     2.532060    10.600880     8.748980     4.830210     9.430720     9.351040     5.568870    12.432800     6.307280     1.362510    10.140100     4.897150     3.897220    12.504540    11.437720    10.049160     8.456480     4.354940     7.161090    14.670280     1.405630    11.125680     9.376250     4.841270     5.938490    14.733180     5.223560     7.316530     7.791890     1.243470     9.143970     9.195450     5.881350     8.378200    10.821300     4.638510     9.387000     8.931820     5.509640     9.706690    14.693730     0.573330     9.227500    11.945350     4.123600    10.371120     8.336950     2.108220    10.366180    13.317590     0.574260     8.361070    11.579780     1.433210     7.931870    13.010500     5.322300     8.961890    12.686400     9.040650     7.795440    12.421960     9.254480     0.262830    11.000850     8.893750    11.398950    11.405770     1.750190     4.920070     7.914260    10.456140     7.805460    10.017580     7.466710     9.985430     9.823950     5.797880     2.023440    14.638080     9.482210     4.566550    10.600990     6.930120     2.820500    14.779890     9.813760    10.680210    13.544000     6.735370     8.360920    13.698880     8.773050     5.616290    14.951940    11.346330     7.501010    10.567370     9.024630     8.756460    10.710050     9.039320     7.130650    16.011940    10.174370     6.909260    10.739270    10.975420     8.097170     8.647990     4.227360     0.998600     7.603200     4.622680     2.190700    13.373210     2.804700     4.794710    13.196830     1.940150     6.174860    11.718090    10.914890    11.296130    15.830560     2.201560    10.303140    14.230510     8.974840     7.705520    14.499910     8.423470    11.370240     9.116160    11.329110     7.353180     9.009240     8.451640    10.368290    15.056610    10.624250     0.781530    15.862220    11.158670     2.050850    16.286190     5.177670     2.294950    16.253770     4.015240     1.368910    15.912870     7.266060     3.279730    15.083560     7.541240     4.595170    14.707150     1.246960     4.590870    15.982510     1.860160     3.957920    14.833940     6.235590     9.856790    14.343760     6.456900    11.337020 
   16.754970    10.069460    10.257250     3.383880     9.739440    10.066470     7.262920     9.926250    10.015850     1.555950     1.038670     9.974410     5.216500     0.976070     9.836280    16.943310     4.037550     9.885160     3.511860     3.935270     9.811440     7.126900     3.993740    10.421570     1.507120     6.985520    10.116660     5.234110     6.823260    10.038780     1.852730    10.899170     1.207230     5.054440    10.823390     1.013050    17.021510     2.094980     1.271880     3.403460     2.017930     0.991800     6.768030     1.778150     1.285530     1.609770     4.859070     1.171750     4.914790     4.781050     1.404100    16.934090     7.773920     1.348270     3.388410     7.962220     1.168920     7.120750     7.870260     1.174390     0.291290    10.180720     4.190280     3.453270    10.056720     4.241480     6.847950    10.004440     4.133380     2.004060     1.133420     4.322640     5.052420     1.061530     4.194120    17.034900     4.171850     4.234670     3.446400     4.100380     4.367920     6.866320     3.975710     4.075770     1.816810     6.974100     4.294300     5.310500     7.004540     4.266730     1.782020    10.893930     7.126710     5.127760    11.040440     7.049760    16.952300     2.159720     6.981430     3.524990     2.335860     7.123270     7.121330     2.054060     6.920050     1.814730     5.127100     7.120960     5.307130     5.009720     7.080890    16.789990     8.133610     6.844300     3.604490     8.163850     7.015380     7.193110     7.886150     6.821430     0.121770     0.172010     0.094060     3.433460    11.674100    11.049960     6.741660     0.124260    11.314770     1.665610     2.919010    11.281170     5.009270     2.953770    11.238040    16.991680     5.685270    11.332660     3.282810     6.083190     0.039470     6.597220     5.782130     0.223740     1.178820     8.939280    11.519080     5.554160     8.861000    11.207800     0.250810     0.217630     5.650600     3.429600     0.406930     5.941900     6.696450     0.108870     5.553310     1.551580     3.258620     5.640260     5.474920     3.096560     5.577110     0.102470     6.171300     5.725910     3.631760     6.073630     5.586330     6.980210     6.062760     5.677410     1.893060     8.988270     5.669890     5.104000     9.132180     5.428070     8.323910     0.908300     4.377900     8.369510    10.976470     1.122800    10.424940    11.580350     8.920500     8.256900     4.857790     1.460680    13.285790     0.768090     0.807240    13.558890     4.305470     5.343420    12.006420     3.494660    11.486730    12.451220     1.631440     7.870170    11.035230     4.943970     5.095300     9.695470     2.435890     1.145170    12.203530     1.106780     5.346180     8.302500     6.712290     4.175710    12.996140     5.845630     0.851740    10.680160     2.334680     3.655730     9.847370     8.794400     4.866580    11.934500     8.855910     3.161390    11.555910    10.893820    11.320180    15.571070     5.264150     6.909040     8.736170     4.926400     6.307740     8.272030     1.108100    10.019100    12.447740     4.462330     8.896500     9.742850     5.292480     8.957720    13.980820    11.451370     8.355870    15.350070     0.914230    10.580850    11.842660     8.105870    11.393710    11.051960     6.210610     2.752210    14.035480     6.662110     8.568960    13.090470     8.901010     7.647440    14.013720     9.482590     1.444680     8.088140    10.857790     6.924080     9.574700     8.076600     9.587940    10.646590     9.170740     7.536570    13.920530     8.731670     4.920260    15.720130    11.104460     6.567300    15.917630    11.291220     1.515850    15.765960     4.708700     1.294320    15.693780     6.722180     4.366370    15.827480     1.112840     4.225590    15.115640     6.292780    10.879110     9.016010     1.491910     4.776110     8.010420     1.265160     3.456970    11.093880     3.193280     0.231430     9.542930     0.093050     9.075680    14.017740     4.737300     6.096290    14.192560     4.428300     4.698140    12.543290     2.771200     0.277590     8.370450    10.061770     0.812090     7.986260    10.967190     2.012000    12.629180     0.081270     0.423180    13.510080     0.577510     1.730050    12.464320     2.507770     8.308160    16.005020     4.483080     7.376480     7.791080     7.014400     3.381900    12.012130     4.729720     5.118600    10.810540     3.224900     4.064640     8.831370     1.906630     1.071880    10.028240     2.283580     2.084410     8.868000     7.505830     4.494030    12.607550     8.623820     3.857590    12.497290     5.042020     0.519000    11.651710     8.031360     2.700670    10.543050     8.895680     4.209890     9.016380     9.236800     4.589140    12.491200     6.601800     0.429980    10.951910     5.529270     4.291730    11.232300    11.147570    10.414330     8.409350     4.012270     6.342050    14.606050     1.038920    11.226220     9.462860     4.974440     5.589730    15.207160     5.936360     7.553220     7.828450     1.418280     9.202880     9.467480     5.431330     8.048070    11.556760     4.608220     8.594850     8.956760     4.810100     9.350180    14.521350    11.641160     9.148710    12.284400     4.157470     9.815910     8.469490     1.936290    10.486100    13.415950     0.397980     8.173470    11.540250     1.359890     8.199230    13.400330     5.925700     8.611150    12.125260     8.978160     7.658230    12.196980     8.986940    11.519940    11.310300     8.088170    10.580270    11.158830     1.780320     4.335470     7.759570    10.892680     7.901400     9.359930     7.089140     9.598280    10.316130     5.745610     2.282290    14.360330     9.496910     4.440820    11.849040     6.010620     2.183200    14.329920     8.582040     1.169730    13.645380     7.552560     8.245170    13.828770     8.929560     5.882800    15.103290    11.423770     7.325280    10.111360     8.657800     8.242360    10.349970     8.921080     6.657410    15.960520    10.121670     6.759040    10.340260    10.875390     8.230200     8.519290     3.945480     1.234480     7.777150     4.822310     2.331520    12.937330     1.376430     4.792100    12.358780     1.483250     6.216450    10.796980    11.031710     0.394230    15.496400     1.772360    10.164210    13.429310     9.547330     8.273810    13.303630     9.317740     2.084020     8.223840     9.845630     6.737570     8.631810     8.483150     9.656060    15.198150    10.610460     1.406720    16.695690    10.841040     1.976770    16.363620     4.936840     2.134640    15.904630     3.753480     1.254440    16.324430     6.999330     3.574840    15.127220     7.521410     4.609540    16.170350     2.033700     4.287400    16.127940     0.780860     3.333920    14.747570     6.522750     9.908300    14.369390     5.969800    11.439940 
   16.839020     9.982800    10.134880     3.460470     9.699120    10.127930     6.932220    10.218370     9.893340     1.663770     1.010060     9.963080     5.072690     1.159730    10.233880     0.021080     3.886840    10.068990     3.570670     4.046830    10.297340     7.168010     4.063490    10.168180     1.634270     6.953070    10.068010     5.347850     6.876110    10.146540     1.617480    10.878720     1.290440     5.178310    10.884570     1.338630     0.179930     1.995920     1.324680     3.378470     2.069440     1.527230     7.090080     1.830500     1.452150     1.737190     5.087430     1.351340     5.115580     5.024250     1.514450    16.678140     7.691320     1.101270     3.536470     8.030630     1.291610     7.247740     7.860130     1.127990    16.984280    10.100070     4.153950     3.419740     9.972270     4.390420     6.927650     9.962840     4.284100     1.774310     1.055960     4.192100     5.097140     1.015660     4.264360    16.992770     4.043320     4.171640     3.487030     3.976490     4.351320     6.915950     4.112020     4.285710     1.715650     6.986110     4.077170     5.101530     6.978910     4.254830     1.612950    10.945080     6.928760     5.075910    10.846570     7.042730    16.879700     2.115170     6.833300     3.463050     2.112690     6.949960     7.041180     2.037280     6.948700     1.712840     5.066110     6.996490     5.147440     5.006850     7.037140    16.943330     7.957610     6.968720     3.331190     7.893690     7.009190     6.871280     7.896430     7.034510     0.136130     0.190500    11.467010     3.392180    11.610040    11.218590     6.746960     0.091220     0.013050     1.743330     3.067170    11.514840     5.121050     2.918820     0.326720     0.065660     5.774350    11.387850     3.417440     6.158820     0.098620     6.725760     5.712660     0.092770     1.211520     8.941240     0.008310     5.592560     8.815120    11.313070     0.140540     0.180600     5.524870     3.410720     0.055690     5.736120     6.787350     0.173540     5.617420     1.651320     2.994620     5.644880     5.306050     3.096500     5.642030     0.081660     5.980230     5.573190     3.425700     6.029730     5.556840     6.822690     6.183900     5.631450     1.527640     8.860030     5.707280     5.214760     9.068780     5.575950     8.261260     0.933740     4.219700     8.509060    10.878430     1.079940    10.468410     0.048330     8.774740     8.087980     5.136230     1.596910    13.590340     1.163140     0.329190    13.391440     4.141710     5.271220    12.032520     3.551650    11.365590    12.184820     1.652720     7.538740    10.927050     5.049720     4.784870     9.850570     3.242950     1.637090    12.952410     1.030820     4.801590     8.435980     6.975140     4.331300    13.100920     5.783020     0.426310    10.546190     2.507160     4.151460    10.248910     9.222360     4.575400    12.312440     8.921720     3.071200    11.802360    11.055310    11.298670    15.543230     4.975650     6.512050     8.606270     5.176070     6.502770     8.328440     1.039280    10.056700    12.131280     4.502190     8.773870     9.747900     5.382500     8.941810    14.084430    11.547520     8.290050    15.499910     1.074480    10.322220    11.371660     8.004870     0.128960    11.277340     6.499980     2.383230    14.185760     6.492710     8.060890    13.489310     8.929310     7.328010    13.911170     9.272040     0.470690     8.056110    10.819320     7.013370     9.573710     8.097600     9.532900    10.660200     9.230740     7.335580    14.274020     8.789630     4.712690    15.518720    11.179400     6.356470    15.559610    11.328650     1.347290    15.754870     4.800290     1.289950    15.758130     6.684860     4.302910    15.801670     1.098690     4.040820    15.292300     6.389920    10.402070     8.914440     1.633800     4.513400     7.898720     1.093350     3.350500    11.189580     3.507490     0.431020     9.698460     0.306170     9.357400    13.421410     3.239000     4.812550    14.277290     4.370920     5.572900    12.579820     2.705980    11.453450     8.317900     9.896220     1.006670     8.528010    11.136510     2.052300    13.145630     0.319430     0.130550    14.146630     0.924710     1.114070    12.162700     2.582070     7.683480    15.863090     4.129260     6.913700     7.973630     6.981490     3.470040    11.870000     5.102740     4.961920    10.764440     3.357680     4.559780     9.124770     2.654050     1.420740    10.236700     3.002630     2.486640     8.546900     7.907530     4.528540    13.008790     8.710460     3.695910    12.607910     4.939020     0.132770    11.910860     8.050990     2.832920    11.017350     9.094390     3.978160     9.984880    10.118390     4.518590    12.625390     6.554700     0.078300    10.689450     5.487910     3.961740    11.473750    11.034730    10.348530     8.342260     4.230380     6.521290    14.677150     1.366750    10.831080     9.401130     5.299770     5.814950    15.056540     5.538210     7.171470     7.742290     1.152470     9.295400     9.390080     5.495600     7.988740    11.162920     4.838160     8.708780     8.960490     5.045860     9.401360    14.849410    11.642930     8.938980    12.142510     3.902350     9.602450     8.469680     1.971530    10.384060    13.494880     0.447990     8.123140    11.363580     1.260060     7.867870    13.434520     5.833930     8.256260    12.531840     8.882250     7.235340    11.872740     8.784580    11.531090    10.662980     8.058630    10.999580    11.456530     2.045350     4.073090     7.464310    10.926780     7.837730     9.419740     7.166850     9.328330    10.872860     6.968370     1.627690    15.128190     9.301060     4.630240    12.029290     6.038640     1.936860    14.601750     8.617870     0.262580    13.851510     7.420960     7.967880    13.950970     8.816820     5.649040    14.965450    11.436200     7.195160    10.231940     8.600370     7.914060    10.347460     9.173570     6.424190    15.670290    10.240120     6.620800    10.267560    11.065830     8.285270     8.919270     4.642140     1.489580     7.654100     4.834350     2.444450    13.884510     0.887020     4.693540    12.916300     1.322990     5.709420    11.034070    11.134780     0.334690    15.894060     1.933910     9.994410    13.701640     9.830800     7.766610    13.583650     8.916350     1.290010     8.070240     9.846410     6.709750     8.773860     8.668420     9.695970    14.946280    10.718860     0.894520    16.054920    10.837580     2.051200    16.015940     4.767170     2.201350    15.735270     3.800330     1.248980    16.096180     7.165950     3.465920    15.291960     7.394930     4.768790    15.892350     2.061000     4.272740    15.995980     1.022360     3.054690    14.939840     6.604810     9.482320    14.511940     6.331230    11.026280 
   16.943860    10.010830    10.146210     3.444630     9.701160    10.125520     7.002500    10.080220    10.069790     1.715260     0.999930     9.991550     5.046630     1.187600    10.088230     0.048160     3.824320    10.044800     3.532220     3.912710    10.230740     7.156990     4.043910    10.353430     1.684270     6.983940    10.077000     5.255980     6.788670    10.123460     1.871320    10.909350     1.253570     5.075770    10.718680     1.129360     0.007450     2.008510     1.307770     3.399010     1.851810     1.442480     6.776710     1.830950     1.492130     1.811130     4.899720     1.252630     4.971190     4.971150     1.502850    16.846030     7.839220     1.165370     3.527180     8.040080     1.420060     7.323230     7.891120     0.993670     0.062460    10.004120     4.213840     3.451060     9.842000     4.286560     6.944920    10.052360     4.334860     1.924070     1.151540     4.240780     5.122780     1.058200     4.173010    16.970480     4.040750     4.221270     3.493120     3.974780     4.302080     6.924440     4.119000     4.263640     1.816980     7.000750     4.257220     5.255470     7.047420     4.231160     1.652990    10.884230     7.070430     5.192520    10.980740     7.184480    16.876460     2.054860     6.937100     3.384990     2.083430     7.099670     6.929540     1.945090     7.040080     1.679020     5.081010     6.919740     5.371870     4.974620     7.111690    16.863410     7.793740     6.927960     3.440210     8.005020     7.028030     6.976990     7.841060     7.066650     0.077750     0.013360    11.464590     3.399740    11.643340    11.209110     6.587550     0.147100    11.521050     1.767080     2.940070    11.413700     4.912860     2.934900     0.191470     0.092320     5.749130    11.345520     3.410640     6.278140     0.081110     6.754250     5.695720     0.149770     1.392000     8.850070    11.455880     5.672590     8.890810    11.377790     0.081850     0.230710     5.526370     3.436710     0.045230     5.731490     6.702770     0.173070     5.613010     1.694030     3.120450     5.653140     5.349510     3.106920     5.661880     0.078900     5.922100     5.379040     3.494620     6.138500     5.744080     6.782900     6.062810     5.674000     1.450700     8.843480     5.627520     5.318540     8.999080     5.684500     8.327980     0.910660     4.395190     8.575080    11.218440     0.813270    10.591060    11.561320     9.087340     8.091170     5.265160     1.603590    13.340020     1.370860     0.351950    13.150280     4.345600     5.333530    12.030490     3.554940    11.533000    12.323440     1.588060     7.789030    10.645280     5.189740     4.868040     9.867420     3.257590     1.436360    12.825170     1.217280     4.989020     8.314270     6.779100     4.168790    13.112320     5.987560     0.426590    10.510980     2.564940     3.961430     9.991020     8.963640     4.621320    12.453010     8.829710     2.755310    11.594810    11.006000    11.366970    15.696100     5.085840     6.706470     8.689620     5.141520     6.413090     7.977670     1.111950     9.861530    12.312870     4.456440     8.564290     9.651500     5.631170     8.829860    14.096220    11.672430     8.630190    15.677220     1.104480    10.325540    10.834660     7.960430     0.127150    11.273400     6.407450     2.468180    14.045970     6.519620     7.995060    13.273860     9.231720     7.303600    13.801310     9.409830     0.631300     8.346080    11.189820     6.836220     9.429460     8.103520     9.500920    10.623380     9.495020     7.304680    14.333730     8.774350     4.796550    15.438170    11.179840     6.418990    15.627670    11.104480     1.290550    15.865250     4.887650     1.265000    15.841270     6.745350     3.768970    15.851390     1.284870     4.112670    15.350630     6.255100    10.468330     9.074320     1.443910     4.665380     8.158980     1.314480     3.519500    11.113550     3.417080     0.401290     9.679240    11.789780     9.389110    13.293240     3.412160     5.267050    13.987350     4.645210     5.850730    12.453460     2.671820     0.051380     8.417710    10.250240     0.634150     8.549140    11.323410     1.767930    12.957540     0.484070     0.166240    13.700890     1.495600     1.234640    12.392590     2.587470     7.866370    15.994800     4.244950     7.144020     7.777130     7.112310     3.484090    11.576680     5.117590     4.971460    10.589930     3.445230     4.410820     9.090220     2.746690     1.102880    10.049370     2.879150     2.336490     8.967520     7.481600     4.460570    13.228970     8.774130     3.323910    12.740530     5.092030     0.133810    12.046590     7.994030     2.576270    10.644240     9.217590     3.919670     9.121770     9.386690     4.265570    12.456340     6.633120     0.061770    10.595990     5.564430     3.996910    11.289490    11.206230    10.421130     8.621810     4.187820     6.358940    14.922350     1.276170    10.929550     9.412900     5.280030     5.787230    15.250100     5.665060     7.422170     7.427180     1.152010     9.039930     9.339850     5.420070     7.885630    11.338130     4.681090     8.602580     8.887430     5.438660     9.367700    14.824490     0.285540     9.156910    12.463570     3.954520     9.370030     8.060050     2.121260     9.948370    13.498580     0.604030     8.510700    11.455840     1.319080     8.080750    13.318220     5.817750     8.273240    12.309150     9.273550     7.163980    11.457890     8.759260    11.496540    10.270930     7.949880    10.860740    11.307690     2.082770     4.112710     7.757060    11.028150     7.665380     9.535430     7.152350     9.208520    10.777290     6.610150     1.588480    15.157290     9.302960     4.640460    12.171000     6.043840     2.243220    14.220360     8.575570     0.370010    13.646230     7.386470     7.845580    14.054020     8.987850     5.693420    14.828790    11.552810     7.120000    10.019710     8.891840     7.722440    10.394430     9.464190     6.343980    15.738280    10.288260     6.629250    10.502440    10.801720     8.432750     8.829000     4.628160     1.374520     7.734210     4.884580     2.464200    13.668470     0.806340     4.709510    12.681450     1.317020     5.977830    10.703640    11.037260     0.279740    16.135540     1.946330    10.002200    13.416720    10.043090     7.819030    13.285240     9.250430     1.459820     8.371510    10.228430     6.378650     8.521630     8.310270     9.636920    14.932420    10.373040     1.039240    16.158040    10.616630     1.971810    15.989720     5.263240     2.243370    16.035770     3.885390     1.228200    16.281550     7.254880     3.006460    15.026390     7.264980     4.062990    16.036250     2.192920     4.348040    16.160430     1.357950     3.132120    15.115110     6.750340     9.626440    14.609000     6.228930    11.138660 