-1401.171700
-1401.239000
-1400.800900
-1400.717300
-1399.804900
-1400.903300
-1400.168800
-1400.189500
-1400.518500
-1401.247600
-1401.257300
-1399.645600
-1400.460800
-1400.011400
-1400.118500
-1400.812800
-1401.072500
-1401.303500
-1400.724900
-1400.940900
-1400.472200
-1401.005300
-1400.981200
-1400.366400
-1399.504100
-1399.517000
-1401.935600
-1400.886400
-1401.075900
-1400.983000
-1400.913000
-1401.957800
-1400.370900
-1400.177200
-1400.834900
-1400.211800
-1400.748200
-1401.225500
-1401.164500
-1399.959400
-1401.002300
-1400.512300
-1400.140900
-1401.130300
-1401.001900
-1400.977000
-1400.664500
-1400.156500
-1400.604800
-1401.517000
-1400.641600
-1401.064100
-1399.332900
-1400.580000
-1401.068600
-1401.419000
-1400.260300
-1400.651800
-1400.992900
-1400.732000
-1400.706900
-1400.508000
-1399.889100
-1400.135600
-1400.381800
-1399.942900
-1401.100600
-1400.563600
-1401.172300
-1399.226200
-1400.179800
-1400.336100
-1400.329300
-1401.445000
-1400.552900
-1400.261900
-1400.916900
-1400.373300
-1400.623000
-1400.317000
-1400.258500
-1400.519300
-1401.843800
-1401.121900
-1401.788300
-1401.551600
-1400.982400
-1401.108100
-1401.072200
-1401.627700
-1401.444800
-1401.387400
-1400.765700
-1400.141000
-1400.819000
-1400.604100
-1400.663200
-1400.504200
-1400.949700
-1400.365800
-1400.980800
-1400.051100
-1400.280400
-1399.120300
-1401.379300
-1401.646500
-1401.477700
-1401.386400
-1401.919300
-1401.476700
-1400.899400
-1401.437400
-1400.756100
-1401.625300
-1401.255800
-1400.782200
-1400.124600
-1400.641200
-1400.901400
-1400.715700
-1400.683400
-1401.630600
-1401.496900
-1401.068400
-1400.407500
-1400.143800
-1401.302500
-1400.660600
-1401.187000
-1401.816100
-1401.149600
-1400.853100
-1400.422600
-1401.287500
-1400.239300
-1400.626500
-1400.426000
-1401.464400
-1400.862700
-1401.899300
-1400.168000
-1400.293500
-1401.733600
-1400.716900
-1401.649600
-1401.180800
-1401.725000
-1400.942900
-1401.175900
-1401.600500
-1400.724800
-1401.141800
-1401.168400
-1400.868300
-1401.333200
-1400.109400
-1400.537000
-1400.559100
-1401.406000
-1401.101500
-1401.659600
-1402.094300
-1401.629800
-1401.771000
-1400.941700
-1401.615700
-1401.171800
-1400.264100
-1401.208100
-1401.485100
-1400.736600
-1401.077600
-1400.109000
-1400.677000
-1400.613900
-1401.300900
-1401.750400
-1400.911500
-1401.087000
-1401.597900
-1401.089700
-1401.474100
-1401.488600
-1401.123800
-1400.890000
-1401.524500
-1400.931700
-1400.594300
-1399.770400
-1401.482200
-1401.139900
-1400.254800
-1400.942800
-1401.084900
-1399.386100
-1401.091500
-1401.229700
-1401.704200
-1400.318900
-1401.775000
-1400.967000
-1401.233700
-1399.212400
-1400.336100
-1400.572700
-1400.084400
-1399.815300
-1400.662800
-1399.889600
-1401.626900
-1399.704700
-1400.826000
-1400.679800
-1400.709900
-1400.372700
-1400.620200
-1400.329100
-1401.036800
-1401.338500
-1400.339600
-1401.211000
-1401.046400
-1400.210200
-1401.384200
-1400.891400
-1400.777100
-1400.620500
-1401.288400
-1401.230300
-1400.574100
-1400.495400
-1399.497900
-1400.751300
-1400.632200
-1401.528100
-1400.793900
-1400.696000
-1401.298200
-1401.022700
-1400.980400
-1401.251600
-1400.761400
-1401.504700
-1400.323000
-1400.103700
-1400.660800
-1400.116300
-1401.842500
-1401.468500
-1401.456000
-1401.399700
-1401.917700
-1400.700000
-1402.182500
-1401.730700
-1401.596900
-1400.770600
-1401.703600
-1401.356900
-1401.581600
-1401.184500
-1401.738200
-1401.800300
-1400.527400
-1400.002700
-1401.171500
-1401.992000
-1400.815900
-1401.505700
-1401.471300
-1400.350200
-1400.330700
-1400.335500
-1400.027000
-1400.628400
-1401.363600
-1400.445300
-1400.811900
-1400.293900
-1400.601700
-1399.954100
