   -0.237513     0.456568    -0.243823     0.011520    -0.152285    -0.105099     0.231537    -0.755719    -0.491036     0.086955    -0.030103     0.127352     0.394341     0.061338    -0.672730     0.312104     0.254892     1.008877    -0.302310    -0.148081     0.088325    -0.376498    -0.403122    -0.548943     0.475590    -0.015466     0.986428     0.114351     0.629581    -0.317331     0.157549     0.117039     0.772176     0.677315    -0.410332     0.405749     0.859381     0.873102    -0.029324     0.895145     0.033417     0.301247    -0.142334     0.520443    -0.033689     0.754124    -0.137848     0.143870    -0.468759    -0.201727     0.187361    -0.488257    -0.540228     0.738799     0.483354     0.976824     0.943813     0.082673     0.552221    -0.005871    -0.663734     0.382672    -0.703889    -0.317808     0.549377     0.669693     0.295016    -0.315731     0.098396     1.162316     0.223460     0.336057     0.287439     0.056412     0.060606    -0.333672    -0.705930    -1.117902    -0.375571     0.950910    -0.765510    -0.342177    -0.019805    -0.120433     0.383786     0.224564     0.280397     0.082240    -0.122644    -0.726791     0.397508     0.507294    -0.089810    -0.068024     0.489675     0.602504     0.250638    -0.955345    -0.073689    -0.131795    -0.532145     0.473735     0.619110    -0.302020     0.878975    -0.369628    -0.671468    -0.142282    -0.084577    -0.161367     1.033189    -0.296875    -0.324184     0.381117    -0.014901     0.409060    -0.132336     0.100631     0.875520    -0.216837    -0.175421    -0.401926    -0.642934    -0.477615     0.293823    -0.086157    -0.272061     0.331435     1.022899    -0.641247     0.406136    -0.420512    -0.339533    -0.039688     0.726619    -0.249376     0.928213    -1.758034    -0.257753    -1.137670    -1.122355    -0.041072     0.149127     0.465308     0.335426    -0.520097    -1.010301    -0.813644     0.370253    -0.475577     0.934211     0.129729     0.435715    -0.868042    -0.150337     0.023748    -0.252825     0.361346    -0.168494     0.373837    -0.546635    -0.081805    -0.302586     0.396033    -0.745387     0.460260     1.678504     0.418629    -0.532257    -0.390973    -0.598298    -0.218429    -0.367646    -0.818316    -0.017952     0.092259     0.365451    -0.248760    -1.122210    -0.127187    -1.534817     0.439644    -0.833018    -0.390231     1.297086     0.612767     0.944718    -0.633063    -1.455935     0.335110     0.032504    -0.233804    -0.763315     0.642859    -0.664004     0.334441     0.469981     1.127532    -0.595431     0.383462     0.399343    -1.130233     0.361274     0.242562     1.572473     0.377141    -0.087524    -0.675905    -1.925489     1.107786     0.064072     0.018347    -0.405544     0.124519     0.003128    -0.358714    -0.501347    -0.383921     0.317126     0.456684    -0.239257    -0.149539     1.703666    -0.793483    -0.307607     0.168945     0.708342    -0.641574     1.075437    -0.945323     0.638942    -0.436231     0.404022    -0.287893     0.935835     2.269580    -1.053494    -0.341008    -1.061053    -0.079086    -0.425637     0.003021     0.179299    -0.133880     0.238869    -1.224128    -0.379746     0.492563     0.052146     0.246635     0.137026    -0.571686    -0.608945    -0.996851    -0.636014     1.687664     0.078308     0.530646    -0.191049    -0.391959     0.867300     0.927374    -0.521186    -0.389950    -1.710918    -0.257401     1.224132     0.920094    -0.782830     1.132324    -1.101921    -0.809177    -0.311588     1.177534     1.171346    -2.893322     1.254668     0.585368     0.837828     0.677797    -1.975609     0.417341    -0.179038     0.277371    -0.868841    -0.396327    -0.907859    -0.329916    -0.597860     1.247883     0.285103    -1.066593     0.362717    -0.645167     0.274104    -0.191523    -0.507762     0.493269     0.017326     0.061239     0.482017    -0.919817     0.581963     0.818288    -0.237461    -0.278197    -0.475498     0.570066     1.668486    -0.506417    -0.193259    -0.719711     0.263434     0.256957    -0.435517    -0.136353    -0.076465     0.127933     0.268275    -1.473383    -0.286935    -0.000148     0.052096    -0.483420     0.243088    -0.231991    -0.185367     0.369669    -0.670519     0.768788     0.373588    -0.531415    -0.513310     0.234363    -0.990927     0.063767    -0.296390    -0.230455    -0.185591    -1.320012    -0.311829     0.288319     0.231537    -0.552015     0.021752     0.953538     0.906100     0.222790    -0.253656     0.794101    -1.244921     0.551974     0.455378     0.600657     0.292969    -0.015520     0.655059    -0.465756     0.842189     0.247996    -0.266207    -0.287950     0.041903    -0.205723    -0.505301     0.250641    -1.635709     1.487944     0.157873     0.382808    -0.377442    -0.442747    -0.000478     0.291076    -0.166138    -0.550806     0.362521     0.249112    -0.537458    -2.250105     1.013592     0.178583     0.013295    -0.151145    -0.299737     0.025576     0.479238     0.056299     0.632392     0.198027     0.359126     0.442343    -0.007085     0.878601     0.603702    -0.413576     1.000614     0.098746    -0.300166    -0.847466    -0.661280     1.492546    -0.668520    -0.567316    -0.444244    -0.029143    -0.310829     0.001237    -0.228587     0.308173    -0.308717     1.236411    -0.044214     0.478460     0.335468     0.246519    -0.025517     0.249986     0.270669    -0.808958    -0.800926     0.224371     0.328790     0.871381     0.139766     0.167779    -0.031227     1.071251     1.044823    -0.348873     0.599113     0.280466    -0.356305     0.335691    -1.013866     0.524065    -0.347858    -0.185105    -1.616812    -0.238094    -0.505355    -0.907939    -0.722134     0.017512    -0.108961    -0.088184    -0.405286     1.095032    -0.053118    -0.949226    -0.235751     0.291249    -0.413508    -0.086630     0.065100    -0.615442     0.215760     0.124855     0.003176    -1.334285    -1.073435     1.701815    -0.084622    -0.103500     0.974650    -1.014292     1.425292    -0.370403     0.064328     0.163244    -0.150598    -0.706400     0.388766     0.806858     0.518891    -0.232388     0.242348    -0.156117    -0.565521     0.760151     0.001017     0.263739    -0.313234    -0.601051     0.606869    -0.806861    -0.172003    -0.229537     0.018343     0.291355    -0.059383     0.122502     0.578411     0.278420    -0.355459    -0.827083     0.594054    -0.267055     0.378382     0.913587     0.226696    -0.060055    -0.542974     0.417989     0.232585    -0.472165     0.758175     0.147030     0.481041     1.074293    -0.413820    -0.297796    -0.141659     0.043706    -0.452046     0.675293     0.509598    -1.067988    -1.004300     0.167076    -0.256953     0.570093     0.349220    -0.106343    -0.013877     0.145538    -0.021494     0.194077    -0.016757    -0.157530     0.434865 
   -0.194950     0.150113    -0.084778     0.185020    -0.708301    -0.990775    -0.766756     0.246994    -0.063620     0.032357    -0.478053    -0.687098    -0.292292     0.250552    -0.224522     0.296113    -0.758993    -0.190413    -0.398981     0.066262     0.989426    -0.100370     0.482118    -0.329242     0.247543    -0.197402    -0.128181     0.065925    -0.124571     0.877208    -0.107672     0.170465     0.304693     0.756238    -0.238144     0.312469     0.746726     0.125175    -0.011898     0.003797    -0.419756     0.966086     0.040796    -0.259964    -0.086284     0.755461     0.079112     0.481512     0.377859     0.502475    -0.531696    -0.310717    -0.020861     0.480820     0.276316     0.124943     0.302968    -0.181432    -0.402247    -0.207837    -0.206292    -0.114095     0.216684    -0.107804    -0.174259    -0.327512     0.413072     0.556912     0.197122    -1.203995     0.796787    -0.261193     0.533724     0.394476     0.775775     0.073059     0.016050     0.191831     0.457129     0.036797    -0.289115     0.036221     0.344440     0.161331    -0.072956     0.443079     0.111335    -0.281498     0.093360    -0.418366    -0.229420     0.705232    -0.081817     0.625202    -0.633329    -0.056701     0.313619    -0.304804    -0.432692    -0.151583    -0.791796    -0.324484     0.068845    -0.344533     0.121943    -0.370801     0.247972    -0.584925     0.393418     0.348903    -0.664387     0.805734    -0.405261    -0.126227     0.140899    -0.589895     0.070936     0.127084     0.397730     0.593719     0.147843    -0.454570    -1.462124    -0.295673     0.635141     0.379694     0.065532    -0.256724     0.578047     0.047610     0.790226    -0.319856     0.171584     0.505754    -0.158401    -0.383296     1.119850     0.034133     0.179293     0.054745    -1.036177    -0.173042    -0.472628    -0.249193     0.633176    -0.998178    -0.053455    -0.293899    -0.034901     0.171769    -0.354582    -0.523993     0.267361     0.454099     0.124980     0.069989     0.237180    -0.089888     0.132319     0.023834    -0.492769     0.486647    -0.468064     0.365730    -0.088175     0.671330     0.262562     0.586975    -0.697236    -0.712841     0.655203    -0.423532    -0.535971     0.079615    -1.331022     0.380351    -0.561520     0.403346    -0.470433     0.456481    -0.297751     0.357800    -1.589352     0.062351     0.709041    -0.514346     0.926016    -0.378838    -0.676829    -0.526945     1.304266     0.247242    -0.305359     0.135720    -0.539994    -1.976156    -0.125496     2.574283    -1.329758    -0.102245     0.135736    -2.187063     0.719954     1.258706    -0.133576     0.253412    -0.961702    -0.349580    -0.526438     0.424594    -0.377688    -0.566696    -1.084817     0.403553     0.761453    -0.325915    -1.355392    -0.027539    -0.591343     0.027711     0.713870     0.717863    -1.286688    -0.572151     0.991143     0.168188    -0.321339    -0.222815    -0.602102     0.482883     0.527086     0.754659    -0.541618     0.311920     0.207249     0.976454    -0.693830     0.009275    -0.319741     0.053220     0.807942    -0.728464     0.368566    -0.678444    -0.446786     1.029092     1.069682    -1.016208     0.587320    -0.492716    -0.259726    -0.050253     0.054873    -1.212295    -0.024189    -0.194527    -0.533200    -1.017620     0.785573     0.494526    -0.101165     2.198045    -0.894653    -0.089279     0.596019    -0.925351    -0.690324     0.096425    -1.120329     1.252033    -1.894540    -1.278778     0.122723    -0.726788     0.022587     1.080179     0.736645     0.782815    -0.911888     0.169486    -1.208848     0.629936     0.227287    -0.594265     1.035578     1.329137     2.213966     2.133418     0.744856     1.155125    -1.865800     0.692760    -0.548150    -0.645623    -0.385668     0.472406    -1.649313    -0.736687    -0.168616    -0.899001     0.837394    -0.414628     2.117549     0.474307     0.280350    -0.239012    -0.670247     0.351276     0.441116    -0.186842    -0.353219     0.014643     2.295237     0.251924    -2.828210     0.623647    -0.526748     0.196919    -0.057174    -0.595230    -0.001977    -0.113647    -0.153397     0.439281     0.597806     0.406596     0.523112    -0.147343    -0.128449    -0.367143     0.881876     0.432910    -0.379996    -0.676607     0.820154    -0.325141     0.426206    -0.053410     0.327625    -0.192408    -0.016560     0.413898    -0.304771    -0.126144    -0.431473     0.877671     0.695043     0.166231    -0.081893     0.178659    -0.598851    -0.209991    -0.825757    -0.404618    -0.360538    -0.048578    -0.111837     0.707669     0.146392     0.306644     0.043693     0.258339     0.447479     0.691472     0.340812    -0.905630     0.229953     0.558246    -0.073084     0.471928     0.115998     0.111586     0.242920    -0.305925     0.320404    -0.209351    -0.089535     0.215465    -0.099891    -0.625887     0.039450    -0.049267    -0.312233     0.241669    -0.214207    -0.367843     1.210758    -0.038360    -0.344282     0.272528    -0.258120     0.085968    -0.379537    -0.252896     0.024861    -0.841083    -1.222683     0.495789    -0.382284     0.752769     0.367689    -0.253644    -0.209277     0.179915     0.032389     0.290748     0.054076     0.128825     0.068986     0.438969     0.102359    -0.445934     0.749698     0.089928     0.984156    -0.740133    -0.593061    -0.597722    -0.130861     0.048512    -1.511718     0.154648    -0.148098     0.014438     0.633472    -0.124723    -0.225466     0.313759     0.312968    -0.003488    -0.247243    -0.275317     0.459851    -0.382337    -1.856297     0.804058     1.056827    -0.330807     0.285983     0.603738     0.385470    -0.373691    -0.943722     1.239021    -0.197623    -0.001888     0.359225     0.070494     1.026197     0.220418    -0.089064    -0.598125     0.044779    -0.077547     0.196135    -0.117334     0.178412    -0.449875    -0.505067     0.468299     0.204590    -0.430201    -0.336680    -0.078762    -0.807366    -0.387923     1.326619    -0.328379     0.272713     0.086206     0.277659     0.105519    -0.257708     0.032609     0.367011    -0.458188     0.015732     0.564030     0.043586     0.002334     0.167538     0.324142     0.821192     0.547787    -0.217602    -0.763363     0.357272     0.473550    -0.169261     0.251154     0.748994    -0.030301    -0.594801     0.062572     0.307274    -0.626717     1.791368     0.467355     1.496884    -0.081873     0.175937    -0.087771    -0.393229     0.052325    -1.103925    -0.000466     0.340867    -1.682525    -0.644855    -1.533521     0.146678    -1.173196    -0.207243    -1.702103    -0.326498     1.282036     0.392137    -0.404625    -0.207732    -0.265612     0.266711    -0.183260    -0.431885     0.431878     0.735552     0.324656    -0.249282     1.230509    -0.115073     0.141001     0.266548 
    0.036822     0.290015     0.286579    -0.196349     0.350102    -0.247202    -0.014246    -0.759369     0.722640     0.594916     0.299600     0.530252     0.567659    -0.021548    -0.267423     0.232830     0.105764     0.187288     0.189470    -0.691993     0.109997    -0.138081     0.271243     0.790902     0.241133     0.069054     0.687003    -0.531402    -0.220817    -0.548372     0.761645    -0.063678     0.075489    -0.135314    -0.419761    -0.843265    -0.593286     0.019287     0.415003     0.548930    -0.010947    -0.657856    -0.213956     0.442131    -0.426364    -0.112691    -0.512647     0.060918    -0.102856    -0.261302    -0.018854     0.150382     0.756703     1.046254    -0.003388     0.296037     0.016756    -0.250286     0.389705    -0.511047     0.461999    -0.528616    -0.143718    -0.159490    -0.612930    -0.945082    -0.110817     0.190711     0.196084     0.528511     0.452893    -0.090439     0.371080     0.221239     0.224405     0.707347     0.134712     0.279241    -0.266915     0.057839    -0.732618     0.052488     0.116597    -0.085778     0.019594     0.219398     0.989638     0.765885     0.391509    -0.505461    -0.033167    -0.199316     1.087751     0.306487     0.667565     0.617062    -0.141081    -0.276430     0.206174    -0.241175    -0.181104     0.682784     0.186807    -0.477237     0.211497    -0.279519    -0.380637    -0.163865     0.571539     0.401765    -0.177354    -0.409778    -0.459052    -0.154566     0.168010     0.462734    -0.150371     0.273886     0.178153     0.216780    -0.534712    -0.326711    -0.634511     0.117820     0.209321     0.911273    -0.195220    -0.529462    -0.048866     0.556480     0.177142    -0.506744    -0.943951    -0.012503    -0.322246    -0.463636     0.278977    -0.701055    -0.296081    -0.078054    -0.832588     0.591389     0.198038     0.465446     0.204753    -0.909625    -0.797639    -0.036420     0.694864     0.812179    -0.456783    -0.289897    -0.460242     0.162567     0.593375    -0.350412    -0.146247    -0.239583    -0.311535     0.008021     0.572376    -0.187172     0.145450     0.355498    -0.353227     1.346382    -0.992641    -0.194505    -0.397495    -0.128964     0.526861    -0.812895    -0.896745     0.044515     0.310947     0.215011    -0.724874    -0.081027    -0.573577    -0.402901     0.915570    -0.448852     2.129533    -0.274548     0.158117     0.826759     0.017041     0.571507     1.152417    -0.545154     0.587833     0.085328     0.391261     0.270749     1.228506    -1.053709    -1.863913    -1.226755    -1.058624    -1.381853     0.958710     0.944756    -1.332169    -0.653981    -1.579862    -0.260465     0.782547     1.188988     1.160911    -1.385434    -0.639756     0.481183    -0.501114    -0.979582    -1.113518    -0.128766    -0.149883    -0.113898    -0.062197     1.764854    -1.604915    -0.683908    -0.617544    -1.490643     0.940913    -1.160232    -0.340866    -1.241523    -0.189793    -0.188847    -1.151766     0.298884     0.060963     0.425113     1.695792     0.667000    -1.216450     0.083853     0.698679     1.150924    -0.412350    -0.851329     0.594621    -0.744312     1.185975    -1.834286     2.140070    -2.558718     0.999561     0.736395     0.863612    -0.540918    -1.225898    -1.395386    -0.145344    -0.009587    -0.411994    -0.062136    -1.129998    -1.199832     0.572141     1.158691     1.282408     0.763916     0.669017     0.098532    -0.756730    -0.477606    -0.062317     0.046834     0.176224     1.379938     0.422797     1.141528     0.817980    -0.089123     0.183759    -0.474337     0.702402    -0.602370    -1.014113     1.393658     0.586841     0.535821     0.078228    -0.458710    -1.541592    -1.060187     0.332175     0.745529    -2.219147    -0.321855     0.200297    -0.617418    -0.443912     0.258528     0.434800    -0.484799    -0.460151    -0.802562    -0.427625     0.729111    -1.068227     1.595159    -0.534488    -1.056412     0.497248    -0.310864    -0.812053     0.090237     1.723613     0.931182     0.575521     0.058754     0.022044    -0.995068     1.101483     0.456232     0.116128     0.611320     0.388431    -0.188582    -0.783443    -1.431860    -1.004085    -0.389135    -0.415505    -0.319869     0.460863    -0.576341     0.001002     1.757565     0.361433    -0.011462     0.039063    -0.108753     0.260060    -0.011105    -0.330659     0.912870    -0.075107     0.021793    -0.119653     0.924786     0.236019    -0.819224    -0.671389     0.009198     0.024939    -0.427584     1.123268     0.526203     1.092822     0.185788     1.107122     0.192995     0.732405     0.831071     0.685222     0.064284     0.290970    -0.023949    -0.178616     0.592948     0.306153    -0.201373    -0.462073     1.574090    -0.258547    -0.556032     0.120781    -0.065136     0.357238     0.552330    -0.570956     0.143794     0.394129     1.200486     0.208723    -0.023177    -0.155469     0.239428    -0.708479     0.190959    -1.395769    -0.716792     1.301256    -0.122705     0.321147     0.359743    -0.256565     0.215000    -0.656940     0.315299    -0.376052     1.226002     1.391956    -0.643975     0.620180    -0.308022    -0.556126     0.431291    -1.585716     0.830886    -0.278394    -0.196689     1.539052    -1.332461    -0.283435    -0.524007    -0.341659    -1.080782     2.037402     0.206144    -0.429676    -0.425764     0.341607     0.550434     0.911789     0.040778    -1.198551     0.421234     0.141769     1.217363     1.615348    -0.007753    -0.119628    -0.188773    -0.197060    -1.695236     0.367557     0.469307     1.087091    -0.925641    -0.939642    -0.549118    -0.495732     0.077033    -0.005858     0.073527     0.062921    -0.265493     0.231699    -0.009046    -0.053296     0.226010     0.113001     0.396825     0.163639    -0.327551     0.027769    -0.019143    -0.461929     0.367690     0.366671    -0.175429     0.047924     0.594141    -0.883143    -0.616438    -0.423431     0.644943    -0.053531    -0.275966    -0.626785     0.340543     0.164217    -0.811736    -0.344737    -0.684576    -0.484422     0.310177    -0.596640     0.174330     0.203972    -0.102585    -0.193449     1.237988    -0.470095    -0.763338    -0.803922     0.160783     1.239511    -0.162784    -0.020512    -0.213870    -0.021215    -0.519230     0.033962    -0.650608    -1.484578    -0.633973    -0.811379     0.034287     1.313450    -0.471776     1.356082     0.950439     0.324450    -1.019367    -0.291878    -0.302427    -1.047576     0.087591    -0.398154    -0.104634    -0.084990     0.702229     1.113931     1.977398     0.010548     0.607881    -1.108375    -0.420552    -1.010709     1.061911    -1.110058     0.909265     0.094560     0.181193    -0.102845    -0.437913     0.006881     0.256237     1.352232     0.381040    -0.631337     0.394070     0.397179    -0.458123    -0.359894 
   -0.180695    -0.335573    -0.408692    -0.004568     0.052352    -0.576728     0.338681     0.347791    -0.827216    -0.172655    -0.127671     0.090341     0.335732    -0.473420     0.080132     0.037641     0.681207    -0.016056    -0.191627     0.364705    -0.643176     0.357795    -0.271208    -0.322475    -0.006770    -0.601094    -0.188744     0.021569     0.472760     0.562319    -1.261348    -0.514385     0.107818     0.464695     0.478416     1.234907     0.083603    -0.246587    -0.049651    -0.327152     0.480119    -0.514546     0.399751    -0.022536    -0.412107    -0.636988     0.602629    -0.012062     0.845390     0.171372    -0.400514     0.070738    -0.257585     0.137744    -0.388729    -0.303626    -0.490286     0.247888     0.014558     0.344571    -0.356277     0.451910    -0.427363     0.323508     0.491891     0.877464     0.234933    -0.627960    -0.224270    -0.848802    -0.476159     0.303042     0.218259     0.036247     1.004335     0.399697    -0.562542    -0.287230     0.113250     0.397891     0.453741    -0.200957    -0.458187     0.058607     0.459003    -0.454950    -0.773998    -0.506060    -0.237179     0.353224    -0.211955     0.216684    -0.830844    -0.107866    -0.446618    -0.837936     0.214759    -0.282205    -0.381824     0.141719     0.121730    -0.555986     0.170438     0.579173     0.028009     0.395014     0.111989     0.559926    -0.843814     0.151725     0.101003     0.300961     0.307817    -0.692806     0.064326    -0.037437     0.216994     0.168556     0.413014    -0.129357     0.802055     0.142222     0.597070    -0.249889     0.311248    -0.232496     0.787719     0.836305    -0.873924    -0.367965    -0.286472     0.585731     0.657360    -0.210245     0.367751     0.500638    -0.004864     0.360977     0.597451    -0.644286    -0.187278    -1.671727     0.948427     0.599154     0.387391     0.870747     0.395778    -1.149546    -1.201814    -0.485599     0.844611     0.150691     0.388046    -0.349004    -0.063638     0.014761    -0.497665     0.463922    -0.238387     0.782395    -0.788387     0.069336    -0.593561    -0.215953    -0.530577    -0.303965     0.947874     0.688138    -0.100279    -0.693699    -0.331506     0.557150     0.086549    -0.448472     0.227360     1.165169     0.874830    -0.187749     0.274281    -0.164455    -0.152937    -0.199943    -0.915296    -0.293269    -0.879429    -0.616202    -0.846526    -0.202338    -0.703528     0.967984    -1.177990     0.621625     0.646138     0.064873    -0.897132     1.779728     1.650845     1.313083    -1.148418     0.237914    -0.254668     0.979388     1.971515    -0.654971    -1.264386    -0.499514     0.219282    -0.933162    -0.513773    -0.253878    -0.383497     0.520840     0.390533     1.709072    -0.463893     2.454148    -0.564202    -0.027605    -0.897035    -1.528464     1.009770    -0.017676    -1.095103     1.112289    -1.354447     0.020535     2.197786    -0.257222    -1.517219     0.256801     0.305376    -0.638390    -0.295962     1.171926    -0.728195     0.319753     1.221606     0.174039     1.056967     0.001850    -1.026488     0.058123    -0.563363     0.873915    -0.278943    -1.524835     0.869277     0.031330     0.016693     0.349869    -0.199606    -0.546525     1.957073     1.346735    -0.181102    -0.389256    -0.040660    -1.241855    -1.313865    -1.882476     1.240285     0.089809    -0.031318    -0.059719     0.627710     0.156909    -0.440946    -1.107738    -2.975285     0.265403     1.892375    -0.445895    -0.567049     0.515377     0.599992    -1.210280     0.289960    -0.096826    -1.245996    -0.066748     0.701437    -0.612741     0.124137    -0.877803     0.394017     0.163921     0.626697     1.757141    -0.675986     0.392749     0.156085     0.092901    -1.586247    -1.683268    -0.264838     0.710744    -0.524963     0.855684     0.534677     0.701282    -0.760795    -0.264085     0.029522     1.127714     0.343057    -0.283043     0.435674    -0.009713    -0.331442    -0.037870    -1.397088    -0.400218    -1.607108    -0.306048    -1.076068     0.245805     0.030662     0.061330     0.243631     0.505729     0.170660    -0.073308     0.057797     0.573625    -0.402884    -0.223147     0.642834    -0.031250    -0.603914     0.221619    -0.280905    -1.107590    -0.068842    -0.068211     0.239935    -0.541726    -1.003600     1.062178    -1.904707     2.283271    -0.425489     1.067382    -0.065233    -0.299484    -0.318417     0.230850     0.088135     0.112330     0.248624     0.336497     0.048285    -0.585986    -0.454625    -0.518951     0.173723    -0.331253     1.016490     0.376671     0.347680     0.542592    -0.568021    -1.658387     0.042573    -0.021401    -0.506540     0.611852     1.012854    -0.471254     0.908154     0.231412    -0.202877     0.331943    -0.564650     0.915232    -1.602276     0.428483    -0.223881     0.453364    -0.784125    -0.997318     0.174852    -0.256844     0.608641     0.118594     1.281631     0.655292    -0.988547     0.209885    -0.069572    -0.961610     0.054199    -0.451622    -0.044739    -0.000124     0.448448     0.840809     0.866301     0.069243     0.175114    -0.873010    -0.774970     0.675145    -0.111588    -0.720867    -0.159525     0.005290     0.008217     0.924258     0.017024    -0.927147     0.558881    -0.911312     0.325583    -0.366672    -0.899890    -0.524126     0.505367     1.285913     1.477287    -0.584948    -0.389551    -0.311032     0.085078    -1.297566    -1.420152     0.576053    -0.243549     0.208802    -0.029594     1.607612    -0.888730     0.418741     1.293716     0.092637    -1.349563    -0.260670     0.409884    -0.153350     1.364510    -0.232098     1.696032    -0.055365    -0.223874    -0.001093    -1.093776     0.235534    -0.470989     0.127674     0.116192     0.206546    -0.065743     0.601112    -0.233925    -0.493650     0.044442     0.835537     0.469085    -0.454042     0.485818    -0.676201    -0.921087     1.042811     0.104436     0.069593     0.174179    -0.215425    -0.610384     0.447502     0.050063     0.698320     0.412108    -0.248912     0.225747     0.310719    -0.093152     0.297473    -0.221386    -0.357638     0.328776     0.786616     0.680572    -0.610405    -1.023613     1.372363     0.047556    -0.352178    -0.616272    -0.172241     0.523701     0.552313    -0.000314     0.327228    -0.396799    -0.275979     0.034919    -0.171382     2.496464     1.380760    -1.600057     0.344823     0.190574     0.108688     0.446214    -0.449972    -0.146879     0.552175    -0.063997    -0.323768    -1.375642    -2.392518     0.052728     0.711970     0.548642    -0.281692    -0.233288     0.561860     1.085396    -0.131645    -0.034654     0.029220     1.634230     0.757582    -0.189300    -0.603583     0.895755    -0.014745    -0.818604     0.919832    -0.391755    -0.027837    -0.462438 