    5.496230     3.632660    14.569210     2.404270    23.913360    15.414210     0.398330     5.997810    16.000150     3.665530     2.234770     0.065670     5.406040     4.739850     1.507400     2.358250     4.614900     1.704880     0.495800     7.292190     3.115850     3.871530     7.169070     3.222220     5.705040     9.938910     4.591440     2.192990     9.747780     4.411910     5.664890     1.533660     2.937750     2.019360     1.563800     2.980160     0.548650     4.102570     4.391000     4.158710     3.970400     4.717750     5.704200     6.858780     5.938130     2.262320     6.685030     6.076640     0.503050     9.636040     7.476990     3.807640     9.352960     7.519790     5.893600    12.717060     7.864380     2.564730    11.800880     8.844120     2.099580     1.581920     6.496770     5.623660     1.752630     6.942530     0.283150    19.312010     6.585740     3.879760    20.044520     5.447120     0.555780     4.536870     8.018910     4.056550     4.443490     8.018010     2.086480     7.557910     9.426890     5.566310     7.367570     9.383410     0.059920     9.830920    10.971720     3.822480     9.755130    11.043580     0.737900    22.610840     9.504010     4.011590    22.549310     9.816720     2.196360     4.319540    10.730610     5.654240     4.365780    11.090290     0.662480     6.705150    12.448000     3.720620     6.592360    12.374160     1.950860     9.145180    13.921760     5.372970     9.060070    14.043630     0.103950    11.811700    15.197110     3.536310    11.929950    14.820020     5.509320     0.840210     0.437430     1.795510     0.805280     0.595260     0.236080     3.233590     2.245530     3.844640     2.982370     2.389990     5.854580     5.761870     3.888920     2.553570     5.469550     3.885820     0.356030     8.489180     5.333660     3.631890     8.271370     5.488790     5.467870    10.826140     6.888260     2.368590    11.072810     6.782280     0.564690    21.493990     7.540770     3.852830    21.144710     7.328700     2.145790     3.178280     8.742720     5.527480     2.876190     9.024300     0.636410     6.007890    10.018110     4.122660     5.739750    10.194010     1.743480     8.556180    11.602130     5.458710     8.059700    11.889800     0.321960    10.881870    13.336530     3.730890    10.448590    13.298490     3.775100    11.747050     5.858010     2.218540    14.535250    14.967420     4.586290    17.300710    10.956140     3.260210    21.265270    12.709280     4.574930    16.443000    14.632720     0.964740    20.806500    14.905330     4.494700    21.319430    15.145410     2.134060    15.030660     0.268280     5.559530    12.183670    12.282340     6.301220    15.104790     1.523660     4.165550    16.708760     1.456690     1.429370    14.016310     3.588470     0.727710    10.821710     1.200370     4.321100    15.008250     5.951380     4.899190    18.300850     3.235920     0.213680    18.273050     0.963390     2.305610    14.509030    12.072230     0.126090    15.844470     5.623350     1.167340    12.471770     5.830890     1.898710    17.320040    11.974200     5.446660    18.858740    13.995800     6.149910    19.897210    10.933380     5.478000    20.227710     8.398950     1.679380    14.840610     7.739330     3.277640    19.618550    10.689790     5.561380    15.683710     8.567390     1.149730    17.436800     9.281800     1.583920    12.139660    12.184280     2.727480    16.397370     4.271890     2.985990    12.769160     1.850810     0.401590    20.671090     1.495540     5.285800    14.512840    12.716180     5.435730    12.247180     0.733110     0.725820    18.111490     3.678510     6.552860    22.480830    12.780080     2.513900    20.135930     8.378860     3.529630    17.775200     7.665310     3.679320    14.392030    10.018850     4.420530    20.362260     1.334290     1.733140    15.291800     8.537340     0.642610    18.243730     9.220550     5.284570    14.769520    13.645630     4.289790    19.817410     2.131380     1.698420    14.559230    14.118720     2.696620    13.640210    14.893160     4.717540    17.152580    11.938830     2.697900    21.982460    12.314990     3.566370    21.483220    13.681570     5.204760    16.004780    15.918230     1.487630    21.538030    15.373390     6.208070    19.323060    13.549680     4.265140    20.955040    16.103280     0.435340    21.303060    14.177410     2.575230    15.902200     0.361760     5.494980    13.230280    12.478740     5.371300    12.043510    11.379820     0.215310    15.114470     0.928410     6.410940    14.495580     2.302060     4.779860    15.941200     1.702950     4.675730    17.398230     1.990310     2.175010    13.605170     3.014190     1.687200    14.952160     3.869860     1.253560    10.367700     0.497340     3.962410    15.139710     6.872510     5.205260    15.428710     5.846190     4.373360    18.537040     4.054290     5.838570    18.173700     3.505200     0.525890    17.861230     1.818070     0.225130    17.666760     0.172540     1.726300    15.292180    12.243060     2.795490    14.528770    11.164330     0.670650    15.493710     6.398710     0.123420    16.803120     5.784130     0.421860    12.864210     6.350850     1.436870    13.040870     5.081040     5.123820    19.564990    14.624670     4.546360    17.471030    14.526660     6.799310    20.613680    10.972200     5.399660    20.166340    11.418420     5.578250    20.154980     9.411560     6.020900    19.526540     7.806210     3.243360    20.260920    11.481330     3.531600    18.665790    10.927980     6.001740    15.010410     7.946000     6.135070    16.140370     9.324120     1.771880    17.441450     8.525840     1.734830    13.124580    12.342880     1.639460    11.952000    11.221360     3.326510    16.032190     4.932820     2.544000    11.896990     1.850310     6.061680    11.440870     0.831240     0.110240    20.720660     2.448250     0.367040    19.646940     1.196850     4.397840    14.800070    12.430960     4.597920    12.234090     1.254230     1.564570    18.669120    15.615580     1.367390    17.338270     3.927000     5.685550    22.785020    12.560580     0.211870    23.306280    12.987980     2.748230    19.874450     9.389170     2.066430    19.449270     7.835810     3.624240    18.466610     6.984550     4.207380    17.121950     7.603140     4.469250    14.736650     9.478340     3.464960    13.498530     9.628650     3.769010    12.689460     5.923570     0.743770    10.252170     2.016270     2.564580    13.493350     1.325310     4.048520    16.475650    10.699190     3.658760    16.173050    14.444850     4.031910    22.122150    15.226070     1.394980    17.264090    11.077960     1.785280    18.248870    12.207440     1.749070    13.918750     7.785890     3.369990    16.823410     3.643230     0.776540    18.629500     4.512030     3.907780    19.939980     0.617090 
    5.677260     3.892050    14.390460     2.677310    24.389530    15.373160     0.557680     6.395470    16.050590     4.043190     6.319590    16.054540     5.435070     5.264280     1.762890     2.320470     5.068310     1.675130     0.129660     7.672250     3.429340     3.676870     7.786040     3.520610     5.521130    10.345990     5.245660     2.198890    10.269170     5.176490     5.695760     1.952110     2.763200     2.024940     1.971590     2.854640     0.558910     4.448130     4.414500     3.845930     4.346280     4.638340     5.501060     7.111660     6.481020     2.182680     6.777280     6.140430     0.274320     9.599100     8.022730     3.739450     9.388750     8.190720     5.448030    12.126160     9.483840     1.876530    12.073770     9.684080     1.861080     1.880130     6.273910     5.398980     2.055090     6.461230     0.231190    19.803670     5.533920     3.854900    20.572200     4.842770     0.107490     4.561110     8.431440     3.774730     4.401910     8.190880     2.073520     7.010040     9.659590     5.661160     6.824200     9.791720     0.666790     9.503840    11.201280     4.020410     9.470040    11.280950     0.303490    22.439720     9.150060     3.627130    22.386930     9.443650     2.052650     3.705780    11.016930     5.290120     3.829380    11.178700     0.455890     6.453740    12.776550     3.669250     6.177340    12.641280     2.451800     8.890880    14.017550     5.641330     8.851420    14.097080     0.466960    11.654720    15.565390     4.120760    11.885350    15.070320     5.648680     1.070580     0.336010     2.363520     1.442120     0.438590     0.526120     3.813470     2.173200     3.939090     3.337350     2.388170     5.408550     5.841870     4.028350     2.111090     6.275880     3.899380     0.082130     8.686220     5.683980     3.614700     8.465220     5.757060     5.272870    11.013300     7.628190     2.134440    11.024790     7.907510     0.304010    21.589390     6.883130     3.742190    21.492440     6.756500     1.768800     3.044030     8.771770     5.221810     2.809560     9.103730     0.324190     5.135950    10.672950     3.618600     5.579760    10.473770     2.323080     8.030140    11.740220     5.839080     7.876820    11.821900     0.587280    10.447840    13.753190     4.051620    10.474650    13.531320     3.446540    12.208860     6.899610     1.884610    14.840100    15.187780     6.812820    17.693800     9.062220     2.854610    19.484180    13.355250     4.293160    17.887190    11.628070     5.832440    18.659900    13.926930     1.219320    21.570490    14.421260     0.386380    14.591670     0.583780     6.006570    11.592940    12.546710     2.759400    13.364720     1.278340     6.660320    17.081540     0.327260     0.924450    13.375090     4.803820     5.730790    10.591170     0.480170     4.566040    14.223310     3.637990     5.495290    18.483140     2.370230     3.789060    19.396380    16.039330     3.051450    13.937840    12.923390     1.394290    16.906340     5.115050     0.228840    12.481740     7.009670     6.736860    15.768250    11.488840     1.295540    17.420760    14.139570     5.081100    19.884050    10.394100     5.255410    20.390620     7.894360     0.820750    15.314180     7.538370     2.009740    19.687180    10.037490     4.448550    14.851500     8.839590     4.844230    17.440990     7.094770     2.104960    11.600600    12.854840     2.397270    17.037750     1.784430     5.733850    12.823830     1.937780     0.593210    21.167190     1.079300     6.388760    14.030350    13.303030     4.452190    16.098650    15.278260     1.548300    19.574050     2.843300     5.869240    21.695670    12.977820     2.290180    20.329490     7.725530     4.222040    16.978570     4.399930     2.508340    14.958090    10.734640     4.516740    20.678930     1.475610     0.259560    15.970850     7.978200     4.670970    17.317780     6.202390     6.564750    14.791970    12.686680     4.892430    19.848430     1.619860     2.127620    14.645800    14.238690     1.861030    13.942310    15.415330     6.424430    17.876270     8.230430     3.418550    19.742400    14.109510     2.087090    20.117610    13.629490     3.629860    15.519530    15.189370     6.568090    18.070360    14.008860     1.714130    16.609640    14.334610     1.003450    21.096860    15.204510     5.542130    18.756210    14.823080     0.615560    17.867690    15.787700     6.038310    12.498220    12.862890     5.926690    11.476900    11.619770     3.175800    13.037730     2.155140     1.815800    13.603690     1.454020     5.689190    16.881660     0.311990     6.607850    17.786490     1.051950     1.659330    12.805750     4.333500     0.192170    13.222400     4.121250     6.639530    10.342220     0.386170     4.401930    13.761290     4.524510     5.032980    13.658590     3.005070     5.212240    17.618310     2.721340     5.359070    19.006350     3.221090     3.193040    16.484350     0.480390     3.527990    14.991390     0.416680     2.908120    14.396250    12.049730     4.002310    13.836220    13.110610     1.099360    17.485510     5.815010     1.154200    16.060970     5.595880     0.219020    13.400690     7.386490     0.789600    12.455180     6.157180     1.952870    17.971260    13.756060     4.934210    17.853070    12.412520     5.282290    20.563850    11.072220     4.904410    18.991710    10.774550     5.094030    20.093130     8.862660     5.507380    19.597190     7.351970     2.694740    20.239830    10.538370     1.213480    20.236310    10.318770     5.379570    14.978480     8.933470     4.294870    13.920660     8.694300     4.347400    16.761140     7.519650     2.625640    12.506710    12.939690     2.189160    11.446290    11.846620     2.351030    17.995540     2.125020     5.932330    11.892740     1.869660     5.032420    15.559820    15.871500     0.896870    20.728190     1.965550     0.856130    20.580740     0.418300     6.459750    14.261050    14.240340     4.045120    16.666670    15.956590     0.533200    15.508190     0.353620     2.485540    19.911160     2.998760     5.419990    22.550310    13.319260     6.620870    21.655300    13.683080     2.295620    20.279630     8.744380     2.436040    19.362520     7.431950     3.442520    17.545030     4.481450     4.006180    16.159200     3.898270     3.305010    14.925180    10.172100     2.183370    14.016900    10.428350     3.411050    12.092890     5.959270     5.302290     9.635320     0.331910     6.265050    13.364280     1.259140     0.061070    18.334100     9.832170     3.608600    18.415660    12.151790     1.647980    22.357170    14.711960     0.639520    15.601250    10.810360     5.897430    15.903600    11.078650     1.682100    15.249330     8.099880     1.719610    16.573870     2.262590     1.112550    19.410030     3.712540     3.794200    20.497950     0.810500 
    5.362260     4.135260    14.479590     2.050690    24.401490    15.274670     0.489210     6.518470    16.120110     3.891110     2.864570     0.007090     5.373900     5.302530     1.709750     1.937350     5.409160     1.414810     0.590680     7.955300     3.026430     4.085840     7.590770     2.981820     5.615290    10.466570     4.844210     2.400800    10.548530     5.066270     5.441150     1.781920     2.879210     1.924940     1.935910     2.764460     0.712620     4.625350     4.550210     3.832940     4.421450     4.664160     5.722610     7.014480     6.000800     2.241510     7.348610     5.848800     0.527590     9.698450     7.643980     4.006950     9.475280     7.994370     5.883020    12.415940     9.040400     2.056340    11.957750     9.639950     1.955410     1.897710     6.752310     5.403400     1.619250     6.504600     0.361490    19.409330     6.132510     3.940230    20.326080     5.081330     0.267670     4.235070     8.131800     3.620600     4.298580     8.117180     2.010540     6.929920     9.580320     5.425790     6.876090     9.528390     0.276550     9.383240    10.965380     3.634510     9.565020    11.220910     0.296100    22.100240     9.449210     3.677920    22.334090     9.395410     1.929160     3.644900    11.013220     5.417700     3.733840    10.853620     0.124750     6.259280    12.467500     3.577560     6.280580    12.619720     2.018300     8.858460    14.113380     5.519260     8.854850    14.143710     0.342280    11.447910    15.499170     3.567650    11.607100    15.418600     5.586960     1.313080     0.255330     2.187250     1.440990     0.427560     0.469560     3.877220     2.168720     3.984660     3.327520     2.527190     5.456210     5.951430     3.949570     1.955530     6.337390     3.626750     0.714680     9.129290     5.276600     4.098760     8.534300     5.121960     5.457160    11.148910     7.364580     2.354660    10.989980     7.510100     0.297030    21.319680     7.215920     3.737610    21.353540     7.070160     2.100290     2.598090     9.024000     5.408140     2.814260     8.846680     0.083600     5.365000    10.309890     3.438000     5.274560    10.345100     2.100570     7.718160    11.865630     5.577850     8.102320    11.647530     0.321120    10.405920    13.594740     3.770380    10.365910    13.683120     3.866430    12.289230     6.917100     1.498240    14.173190    15.790610     0.913300    16.243810     9.626390     3.111750    19.952430    13.026120     3.773920    16.795110    11.250120     4.707280    18.152460    14.447850     3.938110    22.190350    15.860990     1.456680    15.975450     0.419160     5.405420    11.630890    12.764960     3.528960    13.663560     2.581140     6.349690    17.870320     0.675050     1.412830    13.269690     3.757400     4.934500    10.752470     0.544340     5.411670    14.426610     5.081850     4.611150    18.854470     2.506050     4.050010    16.069930     1.157800     2.651420    13.922500    13.011600     2.052640    16.456230     5.769510     0.913470    12.398200     6.856220     0.812610    15.885860    12.438770     0.460780    18.256860    13.885090     5.857990    19.536170    10.945580     5.307000    20.084530     7.959040     0.104300    15.222420     7.124680     2.149120    19.423840    10.516200     3.925120    14.986350     8.138980     5.004150    17.727290     7.027530     1.709840    11.454580    12.660590     2.063580    17.879520     2.475040     6.359230    13.400230     1.735030     0.103430    21.068240     1.099010     5.621760    14.290280    13.385540     2.948060    11.481340     1.692180     1.367050    20.259370     3.263350     6.749350    21.442420    13.114110     2.474570    20.015980     8.090870     4.532820    16.971150     4.549550     2.746210    14.363370    10.560270     4.286880    21.101200     1.194080     0.843620    15.723970     6.780770     4.946920    17.731850     6.040200     6.265870    14.943470    12.912790     4.586230    20.311500     1.791210     2.247660    14.033700    15.219530     1.148590    13.326780    15.988850     0.886590    16.793250     8.847700     3.542530    19.247420    13.609320     3.393430    20.743680    13.514480     2.266960    11.280420     1.008680     5.651190    18.132450    14.195940     0.707270    17.499190    13.353460     3.258870    18.307230     0.375220     4.425070    17.244240    14.307720     1.139300    18.908910    15.882240     5.322060    12.520800    13.133830     5.479180    11.739690    11.828340     2.877960    13.865930     3.269520     3.536300    14.475860     2.065590     5.796660    21.973260    16.118060     5.675200    17.766910     1.337580     1.587010    12.442070     4.355430     0.734130    13.183970     3.086220     5.783180    10.863900     0.877560     5.861310    13.756070     4.621480     5.948580    14.643880     5.862640     3.706150    18.604540     2.427220     4.740650    19.203350     3.441220     3.301530    16.089590     0.553880     4.622870    15.755890     0.461950     2.733320    14.044460    12.034200     3.570250    14.090940    13.324100     1.616760    17.313930     5.654710     3.001980    16.524040     5.505430     0.359570    12.912090     7.637170     1.188450    13.057350     6.199790     0.786590    19.153990    13.528960     3.081710    17.203050    10.739830     5.609510    20.166960    11.663090     5.295300    18.678930    11.055610     5.440050    20.091120     8.918930     5.393250    19.100320     7.679870     2.404880    19.924090    11.361360     1.228070    19.196470    10.569880     4.500380    14.223060     8.433420     3.175970    14.399170     8.054850     5.398680    16.909540     7.304400     1.787080    12.331230    13.092910     1.900190    11.529210    11.676230     1.721240    18.668770     2.993590     5.422120    13.300250     2.060140     4.013370    11.104510     1.250780     0.396860    20.916770     2.024490     0.607460    20.342600     0.568730     6.155120    13.974300    14.159870     3.025740    12.456100     1.936610     0.718140    16.709270     0.362050     2.160210    20.719420     3.680050     0.780840    21.785900    12.936350     6.404300    22.058760    13.789060     2.451950    19.815380     9.161360     2.264470    19.221840     7.577440     5.263670    16.206390     4.621960     4.388770    17.185090     3.635590     3.354600    14.430160     9.784460     2.410770    13.230180    10.136900     3.734980    12.696850     6.047010     4.769280     9.857310     0.157330     6.273570    14.332700     1.456740     1.679210    15.630160     9.564020     3.813100    15.830750    11.188450     3.403730    22.839490    15.403040     1.405040    15.297360    12.941980     1.015680    15.679830    11.492260     0.109770    15.197190     8.096090     1.251360    17.397170     2.268020     0.835050    19.968410     4.105710     3.944150    20.677520     0.394040 
    5.968740     3.928650    14.556230     2.818410    24.473310    15.238150     0.854120     6.495440    16.051310     4.141390     2.820570     0.140210     5.538510     5.493310     1.562250     2.275710     5.673070     1.736690     0.568800     8.162640     3.317050     4.217670     8.057000     3.463810     5.750530    10.595080     5.254320     2.562880    10.600760     5.155920     5.958350     2.016600     2.840010     2.220050     2.426950     2.780840     0.645460     4.836290     4.456880     4.187580     4.554940     4.648500     5.824400     7.345210     6.292950     1.984150     7.254090     6.140040     0.767710     9.907000     8.052220     4.187320     9.702180     7.839390     5.974600    12.413190     9.775880     2.361130    12.100960     9.974540     2.068770    22.335290     6.543140     5.569630    22.412210     6.752030     0.655960    19.114680     6.279600     4.196250    19.865090     5.521240     0.412010     4.132300     8.163120     3.649850     4.126510     7.960570     2.362670     7.034370     9.646220     5.445850     6.896230     9.536370     0.552480     9.566990    11.232080     3.850730     9.528680    11.170020     0.237410    22.181710     9.512770     3.761170    22.360840     9.604240     2.044610     3.662800    11.040730     5.582910     3.849420    10.932440     0.378040     6.292320    12.336720     3.898160     6.347420    12.493250     2.293910     8.588760    14.157050     5.685410     8.797570    14.027370     0.167350    11.801080    14.954540     3.870650    11.243720    15.633520     5.942880     1.359830     0.319290     2.418370     1.235390     0.548030     0.846960     4.098090     2.162360     4.347140     3.467500     2.356040     5.566340     6.188410     4.107530     2.098030     6.712640     3.887980     0.783760     9.256600     5.806050     4.070570     8.533280     5.672870     5.731110    11.424340     7.875270     2.630190    11.308720     7.768790     0.467880    21.039440     7.392240     3.812220    20.940020     7.293970     1.948730     2.762850     8.946520     5.206650     2.574690     8.808160     0.274430     5.404240    10.232300     3.738290     5.398140    10.424140     2.271000     7.859000    11.910570     5.712060     8.037490    11.821760     0.718690    10.258800    13.549860     3.894920    10.289530    13.669590     3.993140    12.512140     7.288540     5.886610    17.215640    13.566580     3.642050    14.334430    10.242660     5.472350    19.832330    11.049900     0.945660    16.948760    10.218150     2.029970    16.919600    13.763280     4.000170    22.403370    13.320070     5.179010    14.339610     0.660320     5.215420    11.569540    12.683810     1.992920    12.433270     0.405000     0.934910    22.377390    15.887390     1.085290    14.052000     4.981140     5.482640    11.066220     2.022350     3.335940    13.071250     3.197180     5.278790    18.834160     2.440980     2.109710    15.558340     0.153410     2.155540    13.763220    13.873650     4.375560    14.611110     5.426550     0.682110    12.758500     7.121550     5.314530    17.284420     9.488310     4.201500    19.134930    14.084880     3.298120    17.297820    11.554160     5.421060    19.720780     8.458750     1.770120    15.200330     8.310560     1.744740    20.101780    11.221420     1.191900    16.712110     4.261870     3.053180    16.986120     6.713100     2.395850    11.550760    12.893320     3.611710    16.805440     1.952600     0.287630    13.269590     2.390400     0.581950    21.088010     1.104750     5.066480    14.743300    12.407950     4.195370    10.530040     0.108740     1.239680    20.594520     3.634310     4.838620    21.484860    15.766640     2.369520    19.795530     8.617330     6.732760    16.452620     1.453370     0.572290    14.735200    11.825320     4.479100    21.117650     1.562170     2.257170    15.896830     7.742140     3.550520    16.313390     6.201530     4.631290    14.298670    13.157720     4.410610    21.390700     2.470870     6.262070    17.013570    14.425740     5.665190    16.432940    13.101550     2.989400    13.320980    10.147910     5.549480    20.668520    11.645680     6.358590    19.469000    11.068410     3.880880    13.203470    16.118220     2.637310    17.133770    12.999830     4.983560    18.677530    13.725630     3.246560    23.055370    13.386300     1.177830    17.006350    13.416860     4.691610    18.493210    16.062030     5.811550    12.032740    13.309330     5.443380    11.803240    11.727080     2.587000    12.939110     0.988910     2.277260    16.337410    15.604520     0.901550    23.018420    15.112610     0.177610    21.823490    15.668160     1.195470    14.998150     4.950820     1.160450    13.551550     4.099990     5.207210    10.607270     2.871820     3.351960    12.297870     3.941530     4.155860    12.998490     2.750920     4.850360    17.983050     2.458410     5.011410    19.216490     3.352430     2.179620    18.635590    15.499040     2.376190    20.024520    16.039060     1.894690    14.275230    13.096110     1.244900    13.551220    14.348080     4.016570    14.378270     4.595840     5.360640    14.472310     5.366720     0.863460    13.549360     7.678090     0.910110    13.214480     6.199050     4.579010    20.040570    14.254580     0.751240    16.180500    10.866450     2.500460    17.087970    10.945870     4.102480    17.720670    11.053970     5.548220    19.835090     9.463300     5.448230    18.754100     8.295810     2.190320    19.279130    11.478800     2.398070    20.873440    11.159990     0.797970    16.705430     3.321290     1.645400    17.480910     4.521580     3.856830    17.548050     6.968170     2.297910    12.528520    13.439610     2.520960    11.817650    11.905520     2.995990    17.131160     2.598080     0.980450    12.919650     1.763200     4.742190    10.733150     0.973910     0.651750    20.957490     2.098420     0.794000    20.196560     0.709830     4.589020    14.661990    11.562080     3.448790    11.182990     0.178400     5.498390    15.088040     1.250240     0.944840    20.154730     4.432060     4.549870    22.057780    15.012490     4.324650    17.991680     0.451050     1.877480    19.896330     9.465610     2.180120    18.959940     8.195480     0.680230    16.169580     0.904250     6.394850    17.261230     0.999990     6.441170    14.371780    11.876980     1.066090    14.104930    11.314710     3.981440    13.214740     6.609360     6.039900    11.889960     2.214230     6.659370    14.074780     2.011500     4.487780    13.852930     9.965980     1.301370    16.369140     9.475250     4.719070    23.017960    12.961190     5.003280    16.408240     9.291570     6.328840    17.180000     9.869270     2.561960    14.911390     8.890180     3.413620    15.912020     1.663590     1.630080    21.416550     3.941910     4.868090    20.149530     1.717020 