-1388.503300
-1386.001800
-1387.688700
-1387.556900
-1387.849500
-1386.190100
-1387.535200
-1386.764200
-1386.155600
-1385.624400
-1385.475100
-1385.775800
-1386.114400
-1385.257700
-1385.952000
-1386.090000
-1387.834800
-1387.899300
-1388.307100
-1387.295400
-1387.008700
-1387.096000
-1386.684900
-1387.341300
-1387.435400
-1387.263400
-1385.878500
-1386.246100
-1387.217200
-1388.546900
-1388.494400
-1388.495600
-1388.606900
-1387.451200
-1386.450600
-1387.729000
-1387.621200
-1387.268200
-1387.439300
-1388.231000
-1386.918800
-1386.728000
-1388.504500
-1388.110900
-1388.270600
-1387.374000
-1388.217000
-1388.027300
-1387.253700
-1384.605800
-1386.687100
-1385.781400
-1387.104200
-1386.080100
-1387.653100
-1387.120900
-1386.869800
-1387.053200
-1386.524900
-1386.683800
-1386.251900
-1386.969400
-1387.178100
-1387.730500
-1386.940200
-1387.920200
-1386.958600
-1387.094400
-1388.100700
-1386.674000
-1388.909800
-1387.239100
-1387.285700
-1386.458100
-1386.923000
-1387.036500
-1387.516300
-1387.009100
-1386.562600
-1385.623700
-1387.994000
-1387.216100
-1386.544900
-1387.427600
-1387.738800
-1386.916900
-1385.703200
-1385.455900
-1386.584500
-1388.514200
-1387.904000
-1388.601100
-1387.370200
-1387.957300
-1387.328200
-1386.300600
-1388.398300
-1386.176900
-1386.787500
-1387.600300
-1387.088600
-1387.339200
-1387.539200
-1387.933300
-1389.372400
-1388.543100
-1387.655700
-1388.032600
-1386.029600
-1386.732000
-1387.038500
-1389.189000
-1387.662200
-1387.751500
-1387.530400
-1387.712400
-1388.811700
-1387.744600
-1387.832900
-1386.956900
-1387.720300
-1389.043600
-1386.786300
-1385.233900
-1387.115500
-1387.100900
-1389.533500
-1388.529800
-1387.639700
-1388.944200
-1390.420400
-1388.725700
-1387.568100
-1388.135000
-1388.912200
-1387.791800
-1386.211700
-1387.034700
-1386.247200
-1387.850500
-1386.859000
-1387.340900
-1388.988100
-1387.533900
-1387.636500
-1386.960600
-1385.589000
-1386.177400
-1388.655100
-1388.586900
-1387.921300
-1387.049200
-1387.527400
-1387.148700
-1386.889100
-1387.011200
-1384.993400
-1387.453200
-1386.109700
-1388.098000
-1387.509800
-1388.634900
-1388.269400
-1387.836900
-1387.144600
-1386.500300
-1386.044700
-1386.926000
-1389.799400
-1387.639000
-1388.204000
-1388.379000
-1387.317200
-1388.071800
-1387.505500
-1387.316700
-1388.793400
-1388.019900
-1387.158200
-1387.098100
-1385.991200
-1388.770600
-1388.635300
-1386.518300
-1387.413500
-1386.979500
-1388.571500
-1386.775500
-1386.723200
-1386.810700
-1387.499200
-1388.158800
-1386.290700
-1387.886000
-1387.429100
-1386.953200
-1387.664000
-1387.792600
-1388.043900
-1388.530900
-1387.886700
-1386.497300
-1386.894400
-1386.548500
-1386.573700
-1387.184400
-1389.076600
-1387.712200
-1388.110600
-1386.550500
-1387.474400
-1388.486100
-1387.579900
-1387.452500
-1387.100300
-1387.121400
-1387.619200
-1388.042800
-1388.088100
-1388.047700
-1385.712400
-1386.298400
-1388.303500
-1389.196200
-1389.673700
-1389.242400
-1388.032400
-1386.977900
-1388.638900
-1388.169000
-1386.456900
-1387.477500
-1387.909400
-1387.867800
-1386.609800
-1388.984000
-1387.796500
-1387.308100
-1387.106100
-1386.895500
-1385.485200
-1387.225700
-1387.377700
-1386.974000
-1388.611800
-1388.710300
-1388.136300
-1387.200300
-1388.010600
-1386.906300
-1386.002400
-1388.376700
-1388.271500
-1388.324200
-1387.849600
-1389.614300
-1388.294200
-1388.711800
-1387.350600
-1387.875500
-1386.469900
-1387.833400
-1388.309200
-1387.976600
-1386.771000
-1388.066500
-1388.616000
-1388.863600
-1389.069300
-1387.744500
-1387.982600
-1389.209400
-1389.396400
-1388.706600
-1388.386700
-1388.744300
-1387.209000
-1387.295100
-1389.810400
-1387.635700
-1388.373300
-1388.397400
-1388.552900
-1388.939500
-1388.836300
-1388.218200
-1386.240100
-1387.975600
-1389.353000
-1387.352900
-1387.392400
-1386.142200
-1389.001400
-1388.027800
-1388.027700
-1388.198000
-1388.824800
-1387.490900
-1385.605100
-1387.052500
-1387.059100
-1388.040800
-1388.438500
-1389.140000
