    0.091950     0.201812     0.554100    -0.613418    -0.657714    -0.511232    -0.384065     0.428503     0.132747     0.072264    -0.379148     0.478012     1.572655    -0.406909     0.682743    -0.472538     0.409624     0.224267     0.026125    -0.157354    -0.008511     0.291305     0.361311    -0.076871    -0.868936     0.992344    -0.068349     0.433343    -0.138321     0.457118    -0.142685     0.197905     0.040718     0.875763    -0.353346    -0.895480    -0.130402    -0.024405     0.467215    -1.247047     0.546272    -0.978566    -0.294970    -0.582789     0.790553    -0.678823    -0.307129     0.267239    -0.140477    -0.378003    -0.474248     0.575123    -0.539018     0.627579    -0.018966     0.251752     0.101804    -0.566164     0.611176    -0.140586     0.851418    -0.162447     0.543857    -0.306969    -0.950043    -0.832448     1.645050     0.015295    -0.534633    -0.153953     0.606090     1.093291    -0.450741     0.380989    -0.138974     0.285506    -0.267449     0.278170     0.205677    -0.414822    -0.010617    -0.560443    -0.735425     0.658167     0.637422     0.326387    -0.145382     0.067797    -0.184650     0.206531    -0.236871    -0.174025     1.533423     0.102895     0.585892    -0.453527    -0.528279    -0.341782     0.699224     0.247109    -0.849501    -0.770956    -0.694303     0.199954    -0.989420     1.015842     0.363206    -0.467631    -0.732870     0.868653    -0.311297     0.715366     0.412647    -0.207838     0.226985     0.211249     0.085216     0.395881     0.187302     0.213894    -0.520345    -0.828807    -0.685971     1.693950    -0.094340     0.821952    -0.486494     0.745269    -0.413994    -0.550780    -0.663503     0.284655    -0.342665     0.842122    -0.685139    -0.016149    -0.373127     0.520288     0.778761    -0.170488    -0.166706     0.636720    -0.233832    -1.867728    -0.264343     0.057452    -0.722184    -2.092330    -0.763221     1.421720    -0.784371    -0.235444    -1.466642     1.291878     1.266325    -0.978817     0.619767     0.307987    -0.216246    -0.910469    -0.007265     0.566526    -0.093952    -0.779574     0.334023     0.049449    -0.194881     0.036914     1.135435    -0.392304    -0.060973    -1.091086    -0.263850     0.128267    -0.677054     0.011072    -0.009805     0.056528     0.379080     0.290966     1.761442     0.047919    -0.984465    -0.503347     0.235288    -1.075679    -0.676156    -2.178004     0.976305    -0.123080     1.121355     1.071959    -0.781808     2.150010    -0.705698    -0.381409     1.550260    -0.673784     0.225043    -2.548094     1.645280     0.201035    -0.005248     0.259326     0.478537    -0.433861     2.354185    -1.788602    -0.416034     1.733717     1.005658    -0.701134     0.592145     1.065342     0.266163    -0.045614     0.160809    -0.674612     0.813599    -0.998149     0.266736     0.711068    -0.314681     0.322408     0.778724     0.086560    -0.542321     1.428852    -0.450467     0.791139     0.371834     0.286282    -0.228981     1.153925     0.690337    -0.316283     0.259637    -1.417456    -0.382249    -1.378969     0.564514     1.733922     0.370753     1.848619    -0.732230    -1.078467    -1.108219     0.883687     1.201792    -0.431138     1.912177    -3.579544    -0.273660    -0.395708     0.484707     0.750335     0.681670     1.364721     0.197458    -0.798807     0.350817    -0.180095    -0.998074     0.283671     0.439739     1.213080    -1.698389     1.010569     0.003304     0.033336    -0.619359    -0.348786     0.539493    -0.300283     1.370718    -0.001959     0.988608    -1.163044     1.329866     1.169240    -1.463170     0.621061     1.679809    -0.466538     0.288738    -0.239724     0.504209     0.725977    -1.535231     0.325661     0.685305     0.884911     0.031244    -0.719366     0.455448     0.252544     0.343822     0.230148     0.695415     2.553418    -0.443126     0.412211    -0.240162     0.234518     0.022801     0.323999     0.573982     0.148267     0.283307     0.696331    -0.120476     1.331701    -0.143009     0.411678     0.023127    -0.035869     0.366850    -1.353815     0.836131    -0.538439     0.873851    -0.726693    -0.777058    -2.190028    -0.775708     0.562997    -1.416769    -0.414404    -0.730783    -1.355392    -1.035579    -0.889837     0.467986     0.856623    -0.162984    -1.247241     0.946932    -0.485131     1.222181    -0.188248    -0.551908     0.087317    -0.182312    -1.228975     0.052092    -0.212643    -0.451954    -2.098918     1.121246    -0.352028     0.047108     0.838428     0.690693    -1.225805    -0.626489     0.575331    -1.208160    -1.109558    -0.019231    -0.250082    -1.193596     0.863233     1.347448    -0.008494    -1.339287    -0.554034    -0.469771     0.301927     0.138918     0.651495    -0.131517    -1.256239     0.257912    -0.298878     0.382728     0.635852     0.117028    -0.557992     0.188023     0.064783     0.086728    -0.403980     0.325984    -1.061895    -0.148874     0.260219     0.534055     0.887515    -0.364402    -0.734687    -0.444214     0.355253     0.542370    -0.455240     0.290894    -0.856195     0.041463     0.062712    -0.043098    -0.431001     0.030993     0.277591    -0.261061     0.429832    -0.885675     0.249546    -0.482045    -0.875184     0.919412    -1.987928    -0.029722    -0.061740     0.378524     0.233011    -1.616629     0.690577     1.017368    -0.142185    -0.325739    -0.763903    -0.372482    -0.173052     0.270675     0.144783    -0.944033    -0.559646    -0.026271     1.144283    -0.316988     0.016656     1.005461     1.688293    -1.026715    -1.548514    -2.830622     0.214943     0.170121     0.084341     0.386796    -0.038081    -0.459864    -0.005995     0.187323     0.088010     0.330720    -0.818527     1.176371    -0.671803     0.767677    -0.437958     0.324506     0.447918     0.496480     0.450999     0.168197    -0.939119    -0.111329     0.451072    -0.214865    -0.014433    -0.438109    -0.173037    -0.403633     0.215176     0.301962     0.174060     0.322299    -0.311729    -1.046624     1.165618    -0.408631    -1.210626     0.317718    -0.170609    -0.219614    -0.287299     0.038283     0.226372    -0.072065     0.091856    -0.452817    -0.457317    -0.125666     0.420454    -0.290354    -0.422611     1.167318    -0.657456    -0.137140    -0.594864    -0.017803     0.355800    -0.030820     0.142597    -0.076569     0.521803     1.772518    -0.062148    -0.082581     0.390691    -0.941064    -0.049348    -0.928873    -0.413919     0.913874     1.722699     0.327668    -0.157743    -0.583893     0.448859    -0.893912     2.790478    -0.149558     1.275266     0.197840     1.360653     0.018819     0.105651     0.123250     0.292140    -2.561273     0.938063    -0.844150    -0.559784     0.253025    -0.094308     0.383464    -0.098941    -0.577006     0.054959    -0.497302 
    0.347435     0.217716     1.628042    -0.118702    -0.381457    -0.514500    -0.174231    -0.274959    -0.133311     0.687976     0.946344     0.136114     0.010798    -0.324532     0.217053    -0.352979     1.290120    -0.021850     0.969368    -0.196816     0.483093     1.235001     0.459623    -0.885527    -0.635582     0.094000    -0.716195    -0.523779    -0.817080     0.349636    -0.604549     0.287092    -0.029533     1.010445     0.197197    -0.718910    -0.963843     0.587426     0.429659    -0.488395     0.030213    -0.289555    -0.089179    -0.797707    -0.635250    -0.782346     0.274845     0.963625     0.097091    -0.479725    -0.513499    -0.243951    -0.327285    -0.307726    -0.360908    -0.206873     0.016340     0.256040     1.000872     1.755644     1.212522     0.352977     0.369647    -0.067687    -1.033354     0.566219    -0.094040     0.221214     0.731348    -0.098325    -0.116609     0.192613     0.835012    -0.384293    -1.020966    -0.507976    -0.335644    -0.034157     0.166194    -0.474317    -0.210545    -0.667102     0.270101     0.114570    -1.298502    -0.687639     0.362131     0.103738     0.220842    -0.241606     0.299586    -0.495414     0.678676    -0.031002     0.620939    -0.138582     0.215683    -0.042838     0.363430     0.588228    -0.173560     0.395932     0.220198    -0.848460    -0.481635     0.117580     0.466914    -0.406234    -1.046567     0.349437     0.936089     0.502979     0.592943     0.257973     0.522637    -0.596187    -0.547153    -0.053016     1.129916     0.981966     0.837469    -0.629049    -1.091359    -2.583645    -0.247187     0.726437    -0.120120    -0.370889    -0.015326     1.025860    -0.257644     0.757834     0.977787    -0.056249    -0.055710    -1.052813    -0.516653    -0.638391     0.997772     0.302260    -0.149693    -0.107625     1.021994     0.276726     0.466933     1.293752     0.323216     0.120803    -0.148922    -2.375333    -0.979134    -0.047659    -0.292664     0.377526     1.437271    -0.252262     1.110409    -0.188429    -0.499513    -0.847513    -0.511174    -0.928641    -0.817355     0.389914     0.692537     0.503070    -0.363927    -0.445912     0.068461     0.260384     0.862665     0.196939     0.788425     0.152299     0.097575    -0.535567     0.630025     0.138878    -1.363982    -0.562217     0.780239    -0.085899     1.719914     0.946663     2.442158    -1.780994     1.557531    -1.055681     3.042013    -1.750717     1.486943     1.037980     0.061296    -0.111794     2.719887    -0.826699     0.348355    -0.821744     0.387586    -1.099037    -1.714355     0.524807    -1.960791    -1.603395    -0.412624    -1.850946     2.682224     0.671018    -0.730247     1.765933    -1.621177     1.259764     1.644497     1.118742    -1.769567    -3.569462    -1.950685    -1.529501    -0.225249    -1.462806     0.225009     2.549484    -0.127326     0.276406     1.511882    -1.322095     1.262035     1.525022     0.571060    -0.337538     1.075864    -0.250376    -1.948476     0.714492     0.664001    -0.615827     0.062600     1.976800    -0.255640    -0.244625    -1.707063    -0.178394     0.765807     0.659256     0.907489    -0.752484    -0.259797    -0.914626    -0.751247     1.850648    -0.676442     1.178549    -0.203958     2.187608     2.310080    -1.572516     1.716564    -0.000488     1.147685     1.290442     2.733953     1.620611     0.413875    -2.154619     0.705982     1.995926     0.030321     0.779836     1.373303    -1.266353    -1.319920     1.617311     3.035015    -0.565263    -0.183590     0.357579    -1.279501    -0.066552     0.234490     1.638559     0.164736    -1.126522    -0.171373     1.927491     2.078076     0.498778    -1.839756    -1.078634     0.528623    -0.179573    -0.474570    -0.921816    -1.965652    -0.806779    -0.959259     3.149440    -1.029565     0.322827     0.263539     0.230930    -0.314724    -0.363438    -3.558789     0.113378     0.023413    -0.006898     1.506948    -2.836960     0.706966    -0.086765     0.207385    -0.104424    -0.178177    -2.953247     1.604068    -1.231804     1.425621    -1.035850     0.627954    -0.600492    -0.128547     1.040380    -0.803965    -1.154289    -0.237762    -0.653119    -0.448455     1.229451    -0.845165    -0.404959     0.345885    -1.749785     0.467081    -0.865502    -0.655376     1.497876    -0.844971     0.502754     0.905893     0.152215    -0.588673     0.708370     0.246471     1.957036     0.136779    -0.040115     0.228813    -2.540229    -0.850358     1.005699    -1.860728     0.787362     0.079384    -0.402165     0.677123    -0.345448    -0.649128     0.625530    -0.788093    -0.823177    -1.553371     1.354374     1.423388     0.825514     0.465086     1.394988     1.452606    -0.277742    -0.160567     0.619319     0.815961    -1.951273     0.381766    -0.690812    -0.005917    -0.208069    -0.097779     0.026613     0.505357    -0.331948    -0.904678     1.398766    -1.409730    -1.019355     0.171757     0.236923    -0.162910    -0.021736     0.464915    -0.636935    -0.030403     0.152454     0.018834    -0.284652     1.362951     0.055102     0.585310     0.539397    -1.024788     0.374151    -0.594750    -0.511471    -1.469827     0.893531     0.721451     1.435322     1.878400    -0.873872    -0.386458    -0.018130    -1.146739    -0.099967    -0.420593    -0.074020    -0.347811    -0.072668     0.692289     0.329281     0.520986     0.228223    -0.216364     0.244397     0.090667    -0.388989    -1.126237    -0.670386     0.650479    -0.817206    -0.616981     1.067953    -0.219380     0.115402     0.301369    -1.260057    -0.257562    -0.580398    -0.990925     0.901811    -1.263155    -0.019237     0.406960    -0.571375     0.166886     0.876840    -0.323710    -1.438841    -0.490848     0.041051    -0.862450    -0.216963     1.147879    -1.582043     0.279440    -0.465983    -0.045157    -0.503116     0.972370    -2.109774    -2.444451     0.118435    -0.064668    -0.304884    -0.445242     1.328770     0.730118    -0.492934     1.834545     0.973527    -1.334686    -0.167400     0.569922     0.714583    -1.684696    -1.112076    -1.048959    -0.134941    -1.694814    -0.284356    -0.434602     0.027653    -0.643490     1.850874     0.287975    -0.373844    -0.433906    -0.145728    -0.088573     0.403695     0.623525     0.735929     0.934553    -0.373033    -0.120326     1.041395     0.411560    -0.129443    -0.331763    -0.947136     0.357778     2.024921     0.037048    -0.581084    -0.519343     1.280403    -0.553736    -0.705062    -2.259766     0.357832    -0.393004    -1.123954     0.935921     1.707478     0.220455    -1.079415     0.418848     1.000204    -0.869132     0.343348    -0.856845    -2.178820     0.288666    -1.279320    -0.597405    -0.393459     0.508173     0.129159     0.312964     0.511137    -0.213399    -0.009878    -0.356008 
    0.307725    -0.517964    -1.006360     0.186289     0.121379    -0.465727    -0.141015     0.049629    -0.835438    -0.395961     0.642415     0.367809     0.055928    -1.649492     0.015445     0.344030    -0.266854     0.700615    -0.695732     0.547730     0.385088    -0.469823     0.980734     0.877930    -0.246690    -0.239407     0.169491     0.176189    -0.147277    -0.774013     0.770789     0.996131     0.521624     0.577071     1.223105    -0.248815    -0.863465     0.262725    -1.033108     0.512085     0.562822    -0.825518    -0.934744     1.397622    -0.224720    -0.520409    -0.016297     0.146474    -0.681207    -1.237850    -0.182471     0.265752    -0.017188    -0.440608    -0.251545     0.661537     0.779197    -0.290696    -3.160341    -1.416956     0.117833    -1.711663    -1.000613     1.203226     0.607854     0.336257     1.082080     0.133280    -0.824183    -0.665102     0.652762     1.269158    -0.421160     0.166073     0.159826    -0.296926    -0.251470     0.546436     0.331263    -0.511676     0.371762    -0.496700     0.065795     0.424370     0.952041     1.055204     0.151511     0.137476    -1.058816     0.797505    -0.458713     0.623910     0.171812     1.191513    -1.224416     0.887168     0.135970     0.789686     1.296226    -0.480936    -0.063969     2.095303     0.083863     0.732215    -0.029330     0.314662    -0.669180    -0.781683     0.011955     0.021130    -0.316016    -0.732623    -0.013236    -0.638942    -0.437278    -0.355355    -0.840471     0.628828     0.461611    -0.126961     0.397546    -0.746820     1.106791    -0.619048    -0.333959     0.437591     0.534101    -0.141065     0.450091    -0.263060     0.357161    -0.484463     0.066703    -1.449723     0.455144     0.773677    -0.092666     0.079383    -0.137423    -0.647685     0.108045     1.050722    -0.297143     0.522954    -0.346878    -0.559005    -0.449742     1.035096     1.293446     1.635628     0.022400     0.636077    -0.248366    -0.779618    -0.729822    -1.738476    -0.882400     0.313512    -1.269752     0.931018    -0.243313    -1.633559     0.457390     0.295415    -0.816648     0.400115     0.077564    -0.216880     0.000135     0.931523     0.011279    -1.343676    -0.862658     0.817046    -0.514593    -0.996044     1.662084    -0.279054    -1.276505    -0.327592    -0.586606    -0.129545    -0.618545     0.123707     2.962178     0.350678     0.041066    -0.616483     0.370978     0.520617    -0.271526     1.141989     1.503913     0.702457     1.076288    -0.645908     0.010200     0.383526    -0.060865    -0.884013     0.319871    -1.970327     0.493639    -1.019781    -0.084458    -0.769848     1.053433     1.133830     0.310263    -0.405027     0.214112     0.818302    -2.063429     0.817163    -0.976001     3.120803    -2.421603    -0.502024    -1.289714    -1.275693     1.387224     0.701274     2.199106     1.196545     0.824719     0.301009    -0.558218    -0.048013     0.498426    -0.016716     1.244695    -0.022780    -0.323265     0.301965    -0.784060     1.618698     0.504281    -0.400858    -0.472480    -0.327715     0.180965     2.509816     0.540854    -1.293370    -1.752823     0.186933     0.102317     0.080106     0.608404    -1.238012    -0.690920     0.435260     1.357888     0.627868     0.767585     0.835497    -1.245024     0.874531    -0.605368     0.960756     0.160941     0.778105     0.754434    -0.422979    -0.409561     0.478504     0.645905    -1.585479     0.514436     0.303841     0.656825    -0.879012    -0.485827     1.154246     0.214479     0.328103     0.861702    -1.010081    -0.310478    -0.543440    -0.198532     1.945063    -1.571982    -0.315062     0.896420     0.134241     0.185934     1.319685     2.216542    -2.212942     1.523295     0.194710     0.211580    -0.862332    -0.172788    -0.335659     0.430199     1.355418     0.542606    -0.486568    -0.036659    -0.023099     0.349396    -0.774619    -0.773821     0.477567    -0.398671     0.496507    -0.468203     0.415165    -0.416255    -0.628357    -0.627335    -2.200024     0.249272     0.222206     0.503146    -0.431320    -0.234208     0.247685    -0.999684    -0.228664     0.169157    -0.245582    -0.176946    -0.145428    -0.222173     0.628780     0.440968    -0.171754     0.497635    -0.311532    -0.978133     0.356112    -0.505933     0.252971    -0.291261    -0.168101    -0.038801     0.402142     0.530508     0.408277     0.214085     1.209359     0.254680    -0.028956     0.012175    -1.880770    -0.630949    -0.467123     0.526811     0.396283     0.954106    -0.693518     0.823763    -0.893993     1.011410    -0.663522    -0.113577     1.042231    -0.767330     1.391545    -2.186896    -0.766980    -0.525708    -0.567556     2.792302     0.159390     0.974873     1.122432    -1.386913    -1.150476     0.178940    -0.018904     0.488819    -1.911269    -0.630654    -0.042904    -0.396110    -0.298917    -0.642382    -1.907183     0.481821     0.479768     1.553600    -0.304974    -0.303190     0.204434     0.226470    -0.858574    -0.470719    -0.156466    -0.049028     0.348230     0.272810    -0.171602    -0.582359     0.237584    -0.053467     0.831424    -1.049985    -0.963055    -0.250880     0.331683    -0.058913    -0.543495    -2.135825     0.360066    -0.607476    -0.291399    -0.384939     0.224748    -0.625365    -0.528567     1.138758     2.036969     0.107431    -0.203115     0.136023     0.890515    -0.602476     0.052654    -0.624810    -0.114467    -0.960873    -1.005719    -1.223613     0.008579     0.276736     0.757732     0.841287    -0.468738    -1.295540     0.058333    -0.965631     0.286340    -0.953204     0.104610     0.638578     0.728663    -0.167175    -0.124086     0.068869    -0.321799     0.513560    -0.311629    -0.753395     0.767560    -0.316789     0.069657    -1.350423     0.374350     0.215938     0.125337    -0.060290     0.614972    -0.645226     1.219442     0.219317    -0.449191     0.480034    -0.540421     0.077921     0.325173     0.288751     1.299844    -1.115058     0.188086    -0.752431    -0.526276    -0.345468     1.492984     0.587754    -0.527572     0.025986    -0.298842    -0.409589    -0.194423     0.196771    -1.064159    -0.165509    -0.242852    -0.238756    -2.374059     1.552677    -0.580058    -0.016481     0.021406    -0.933760     0.009770     0.651655     0.956128     0.266318     2.041630     0.732035     0.368349     0.072580     0.048204     0.125830    -0.149669     0.183756     0.770678    -0.252908    -0.101841    -0.017362     0.157772     0.180931    -0.727836     0.234449    -0.545387    -0.358723     1.048025    -1.068310     0.437236    -0.034787    -0.034823    -0.216562     0.568803     0.652567     0.081902     0.084549    -0.088220     0.398165    -0.207772    -0.256284     0.816298     0.695178    -0.999667    -0.401560    -0.624634    -0.425089 
   -0.113549     0.216147     0.182033    -0.231262     0.496525    -0.302608    -0.299160    -0.199988    -0.052718    -0.132052    -0.225419    -0.880071     0.272122    -1.251447     1.554793     0.757714     0.302939    -0.348945    -0.039488     0.278401     0.239561    -0.699612    -0.375247    -0.399439    -0.193975    -0.539124     0.350141    -1.081558    -0.163542     0.654915    -0.075148     0.812488     0.226904     1.233113    -1.339669     0.663859     0.700418     0.473387     0.075352    -0.345235     0.313260    -0.263706    -0.431341    -0.791475    -0.083021     1.702974     0.330642     0.665024    -0.509462    -0.383029     0.058528    -0.014936    -0.772983     1.506968    -0.124733    -0.257821    -0.140070    -1.811526    -3.786784    -1.447350     0.579574     0.727970     0.175033    -0.732687     0.823466    -0.468378    -0.345938     0.402686     0.559657    -0.327088    -0.420307    -0.416995    -0.697839     0.884840    -0.800794     0.659058    -0.046872     0.502982    -0.866016    -0.410032    -0.011110     0.902670     0.002052     0.154595    -0.344285    -0.249447     0.412746    -0.193578    -1.343345     0.727730     1.052283     0.340448     0.190351    -0.705479    -1.378365     0.756403     0.476864     0.720960     0.134533    -0.504221    -0.522683     0.075123     0.105918     0.183548     0.780336    -0.090411    -0.583241     0.858908    -0.537149     0.861560     0.317566     0.502274     0.074118     0.320130     0.283728     0.557971     0.215784    -0.099905    -0.377426    -0.596344     0.101829    -0.880765    -0.211437     0.165560     0.001548    -0.097753    -1.534624     0.767905    -0.267203     0.219017     1.227630     0.645496     0.308900    -0.729990    -1.010185    -0.643925    -0.577158    -0.760289     0.215874     0.844610    -1.156648     0.277719     1.162632     0.204868     0.772853     0.746570    -1.103811    -1.145145     0.421145     0.661747    -0.352777    -1.133595     0.087314     0.547723    -0.028820     0.462112    -0.110130    -0.714098     0.051582     0.896713     0.720185    -0.623660    -0.159925     0.047932    -0.709520    -0.353334    -0.794158    -0.639515     0.788960     0.393060    -1.225457     0.055704     0.578611    -0.753873    -0.195304    -0.812847     0.071185     0.025072     0.273621     0.420547     0.689433     0.584159    -0.367221     1.051793     1.853298     0.480147     1.537192     0.777565    -0.321423    -0.147958     1.740555     1.541622     0.175423    -1.609807     0.752019     2.335129    -0.138298     1.206277     0.699990     1.686179    -0.875602    -1.203619     1.964300    -0.544199    -0.209171     0.302032    -1.050177     1.569663     0.297815    -1.124819    -0.027497     0.771618    -1.233299    -0.221089    -2.717011    -0.499821     0.041560     0.221283     1.617095    -1.345393    -1.600756     2.858170     0.075370     1.989222     2.020703    -0.747968    -0.594749     1.734576    -1.273519    -0.596801     1.423764     2.139761     0.366447     2.170530     0.646871     0.622348    -0.485753     2.003660     0.784348     0.856023     0.835573     1.620789     0.575086     0.420141     0.941788    -1.583504     0.027195     0.815435     0.135179     1.963177     0.778757     0.371853     0.395663     0.984361    -0.572828    -1.506398    -2.937616    -2.396880     2.261883     0.302562     0.354124    -0.258905     0.395677    -0.212914     1.181015     0.685127    -0.257152    -0.119567     0.164458    -0.224230     0.557115     0.240674     0.892278     0.549818     0.115244     1.483610    -0.799280     1.828861    -0.507546     0.223600     0.437816    -1.709607     0.867739    -0.296673    -0.556624     0.467450     1.108361    -0.436568     0.211918     0.581028    -0.135099    -0.172466     0.215701    -0.034024     0.490506    -1.301967    -0.738624    -0.831040    -0.650946     0.189256    -0.394292    -0.327601    -0.186650    -0.154197     0.079943    -0.706801     0.001449     0.726968     1.101911    -0.151623    -0.310228     0.305018    -0.658875    -1.900961    -0.807573     1.372315     2.566941     0.161361    -0.288378    -1.870512    -1.655803     0.735997    -0.142558     0.401816    -0.181625    -1.155807    -0.223081     0.132709    -0.001657     0.393792    -0.367935    -0.716150    -0.160973     0.732810    -0.795923     0.161423    -2.404106     0.201298    -0.821328     0.976533    -1.276644     0.926809     0.436873     0.484165     0.632065    -0.305804    -0.236977     0.440097     0.123146     0.007073     0.098674    -0.994414    -0.243086     0.633579     0.452824    -0.586531     0.949019    -0.725096    -0.167100     0.198934     0.272909     1.276023    -0.790660    -0.306332     1.581855     1.188837     0.762687     0.735189    -0.872379    -0.205824     1.901034    -2.156777     1.597004    -0.284586    -0.901851    -0.475562    -1.139805    -0.375082     0.737960    -0.626132    -1.142028     0.130551    -0.963427    -1.669742     0.730597     1.599328    -0.616370    -0.428387     0.693259    -0.307691     1.651266     0.232875    -0.636722    -0.915507    -0.723189    -2.011420    -1.271183     0.270569    -0.047911    -0.064264    -0.072711     0.508106    -0.542901    -0.478990     0.161565    -0.948336    -0.810848     0.080975     0.029470     0.703501    -0.163529     1.739391     0.655096     0.606171    -2.077163    -1.234649     0.734789    -0.805463     0.144871    -0.603351     0.097349     0.073763     0.186703     0.658159     0.195889     0.270875    -0.887939    -1.545622     0.396185     0.745268     0.682675     1.778447     0.587830     2.090492     0.458557    -1.623219    -0.416840    -0.311365     0.332032    -0.342750    -0.436844    -0.346913    -0.699868     0.413003    -0.887202    -0.294803     0.553127    -1.135489     0.747414     0.163323     0.918516    -0.131894     0.472349    -0.032210    -0.154935     0.321580    -0.379200    -0.028351    -0.281158    -1.662251    -0.108137    -0.406519    -0.317104    -0.572356    -0.351535    -0.168743    -0.464235    -0.986354    -0.486333    -0.771120     1.028398    -0.354845     0.011994     0.521392    -0.423157     0.264285    -0.244745     0.378913    -0.055578     0.773046    -0.614862    -0.865431    -0.498619    -0.201575    -0.273986     0.121659    -0.011616    -0.672418     0.598952     0.804656     0.795986     0.542666     0.585330    -0.741880    -0.977358     0.215858     0.319421    -0.175825    -0.339458    -0.743160    -0.089117     1.102531    -1.435270     0.122690    -0.880826     0.589084    -0.116906    -0.333323     0.252371    -0.353194    -1.062757    -0.960625     0.596828    -0.279220    -0.909414    -0.025017    -2.009746     0.072347    -1.145889    -0.923747    -0.174253    -0.301570    -0.486955    -0.354171     0.096919     0.244768     0.426967     0.167323    -0.888342     0.768121    -0.697529 