   16.949470     9.496680    10.093170     3.406390     9.375650     9.871040     7.088580     9.667900     9.621360     1.791230     0.506220    10.017380     4.932100     0.526920     9.889310    17.010020     3.560500    10.078040     3.309330     3.459430    10.039000     8.433200     5.037830    10.143110     1.634560     6.647430     9.868510     5.220040     6.411630     9.904260     1.889160    10.404650     1.227360     5.241410    10.378270     1.052900    16.976640     1.534070     1.290920     3.409360     1.514770     1.431190     7.017070     1.809200     0.908090     1.729320     4.609440     1.237400     5.205900     4.528620     1.161760    16.974470     7.359490     1.126840     3.439900     7.495530     1.011710     7.187500     7.815210     0.873910    16.684980     9.671040     4.420310     3.314360     9.659610     4.097740     6.926040    10.088760     4.119100     1.348540     0.913880     4.327120     4.864440     0.986570     4.133460    16.810660     3.907660     4.443290     3.209790     3.645080     4.461000     8.529510     5.576810     4.547140     1.697560     6.739820     4.253100     5.346900     6.763810     4.407810     1.688040    10.596780     7.000580     5.064810    10.894550     6.779980    16.635570     1.833530     7.158010     3.082140     1.731250     7.081900     6.879410     2.101950     6.620610     1.640300     4.821680     7.233920     5.026470     4.777360     7.193140     0.002730     7.702290     7.164730     3.495520     7.903790     6.897380     7.010860     8.086180     6.764180     0.162570    11.461820    11.433600     3.379440    11.156940    11.251890     6.715630    11.647420    11.166350     1.509390     2.675770    11.472530     4.777800     2.402860     0.004960     0.145480     5.599580    11.259090     3.615730     5.760110    11.274910     6.840190     5.745870     0.105690     1.464400     8.363860    11.419380     5.533310     8.686070    10.896150    17.004810    11.590870     5.787250     3.177780    11.537730     5.406520     6.698130     0.156000     5.359220     1.201110     2.815340     5.932250     4.661280     2.738430     5.885290     0.081870     5.754920     5.938580     3.571080     5.943930     5.840930     6.897390     5.920060     5.982120     1.509780     8.678130     5.636960     5.403740     8.893050     5.472480     7.996110     0.910500     3.859270     8.335970    10.872300     0.582570    10.927560     0.073050     5.876570     8.219970     5.045620     1.435130    14.026770     2.301080    11.524490    14.051310     8.501600     5.903930    13.469030     6.812970     1.808170     9.892850     2.417970    10.261560    10.159390     2.579330     5.785060    11.794890     5.222710     0.414960    13.553310     4.006110     3.891080     9.460010     8.722670     4.188460    11.587800     5.229090     5.593120    10.081060     3.362720     1.185450    11.902560    11.360140     3.580380     9.653620    11.121230     2.684160    13.134900    10.807030     9.864760    15.609390     5.083650     7.407340     8.122930     4.625760     7.225110     7.881800     0.653270     9.453860    12.411180     2.548700     9.486450    12.537520     6.942650     7.543540    13.272140     3.669350     7.153900    15.541530     0.631880    10.296370    14.224830     8.888930     0.237210    12.258530     8.507040     3.777920    12.847400     0.455530     7.618970    13.926670     0.845500     2.438050    10.317710     7.482570     0.173480     8.321520    11.253050     6.563180    13.125880     5.476900     9.650050     9.899710     7.555720     8.948720    11.158880     2.329680     3.272190    15.426800    10.551140     7.068510    15.718780    10.572290     1.289940    15.329210     4.873930     0.862950    15.485550     6.591790     4.813170    15.155210     0.897810     4.949230    15.676040     6.351330     9.905890     8.531760     0.154080     3.339540     7.386840     1.194300     3.132900    12.723460     6.197180     1.471580    11.516070     0.123280     6.698760    13.563000     8.067400     6.608580    13.431270     8.715150     5.200920    13.105890     7.355900     2.609980     8.269060     9.923160     0.559300     8.840990    11.156460     1.426650    13.383150     2.282440    10.790240    14.657350     3.048550    11.499280     9.494920     3.203520     9.848400    15.988900     4.567430     8.206320     9.176600     7.750740     4.008490     9.152130     2.616170     5.597580    10.437140     2.947460     1.995670    11.018910     5.775050     0.282610    11.261450     4.388970     0.635850     8.580900     9.070500     4.499840     9.496710    10.249100     3.176650    11.725280     5.753470     6.413030    10.598630    11.341000     2.977280    11.706590    11.350780     4.527410    12.442220     0.273860     3.165000    10.712830     5.420120     5.224150    10.347140     3.439110     6.152220    13.066980     9.952290    10.301570     8.441980     4.911300     8.089060    14.999840     1.404620    10.811830     7.822590     3.668890     7.254220    14.626390     4.701270     7.264920     8.123170    11.703390     8.966240    11.838000     7.448210     7.911420    11.505920     2.440890     9.870230    12.863140     6.433110     8.381650    13.600510     2.744290     7.255710    12.492140     1.967100     8.743160     7.309920     1.205420     8.872970    12.754450     3.718480     6.336880     9.313840     1.673970    10.082460    12.858040    11.687890     8.422850    13.867760     1.613780     1.849640    14.893740     8.425570    11.216700    13.840300     8.107180     0.693540     9.836330     2.721320     0.434890     8.362440    10.291250     6.697960    12.572790     5.413770    10.499130    11.274120     8.465890     3.939820    10.829180     2.674550     4.139610    12.424210     9.423250     3.494900    10.086630     7.392730    10.733930    13.644470     0.124640     7.123420    11.958630     2.978690     3.189980    15.887900    10.424300     7.903400     9.365500     6.726640     9.046210     9.159220     8.141760     8.975680    15.106890     9.671880     6.676170    10.774030     1.033130     5.680170     8.960140     4.397990     1.235870     8.305830     5.113180     2.391580    13.180130     4.868950     4.154550    14.535980     4.208700     3.927920    14.031060    11.080850     9.908540    15.764010     1.040840     9.427630    14.424200     0.163750     1.949130     9.495140     7.198060     0.621780     9.301890    11.515120     6.304980    13.162820     4.549640     9.223060    15.102880     9.818600     1.096590    16.099980    10.413380     2.200520    14.788280     5.544830     1.238490    15.438960     4.177720     1.553580    16.011260     6.997120     4.078530    15.020340     7.313800     5.262550    15.046990     0.672140     3.979180    15.304970     1.861950     4.951710    14.707190     6.047220     9.848800    15.966940     6.936790     9.182650 
   16.918380     9.629210    10.036000     3.388980     9.468740    10.027300     6.757760     9.770620     9.638490     1.468180     0.854290    10.005230     4.835170     0.721390     9.746850    16.846820     3.891680    10.228570     3.398480     3.650720    10.045750     8.408140     5.430250     9.978140     1.769890     6.589900    10.141110     5.224120     6.500190    10.088720     1.729030    10.635400     1.246400     5.200160    10.764590     0.920870    16.976720     1.705210     1.379910     3.296040     1.574890     1.277420     7.106150     1.884560     0.447020     1.811090     4.600590     1.480430     5.298670     4.434040     1.223970     0.217230     7.655760     1.421450     3.716590     7.748040     1.188790     7.167120     7.834360     1.117360    16.699030     9.639650     4.522350     3.172720     9.449930     4.145380     6.664810     9.653380     3.900020     1.378590     0.705970     4.323460     4.875580     0.752740     3.960300    17.014210     3.718380     4.429910     3.253630     3.649050     4.381670     8.466920     5.335080     4.119200     1.714630     6.639450     4.302230     5.171400     6.524750     4.318500     1.607230    10.655100     7.160490     5.081060    10.708680     6.709550    16.677560     1.719250     7.296730     3.207200     1.523890     7.023120     7.072870     1.854190     6.329990     1.744800     4.641890     7.279890     5.239330     4.579450     7.002850     0.066910     7.566460     7.113990     3.491650     7.805230     6.998380     7.087280     7.844530     6.761190     0.090800    11.675560    11.543160     3.301790    11.344920    11.168770     6.847810    11.601880    11.038430     1.462500     2.774810    11.533900     4.903460     2.400320    11.396090     0.163170     5.649910     0.135100     3.556610     5.735220     0.166800     6.927460     5.836070     0.135870     1.433340     8.617300    11.421120     5.547150     8.737950    11.311670    16.960030    11.528080     5.791360     3.285280    11.447140     5.314040     6.620350    11.723630     5.196240     1.296320     2.593320     6.000390     4.699180     2.644080     5.699130     0.158310     5.636110     5.832590     3.444680     5.823450     5.757280     6.918150     5.730180     5.832350     1.456140     8.683000     5.684530     5.340320     8.683930     5.325290     8.134420     0.708760     3.886110     8.701900    11.056840     0.254380    10.660810     0.076460     6.341610     8.376980     5.165780     1.223150    13.936650     2.690290     0.443180    13.857800     8.224800     6.177530    13.509000     6.978840     2.007470     9.958450     3.000110     9.811940    10.146840     2.623450     5.644910    11.639270     6.008060     0.370420    13.511220     3.988680     3.525240     9.518930     8.440830     4.529460    11.299180     5.474140     5.638860    10.703790     3.611130     0.710360    11.897350    11.022590     3.694420     9.570710    10.791250     2.693130    13.529210    10.428270     9.844970    15.622270     5.047210     7.045060     8.319470     4.598790     7.065480     7.856030     0.510730     9.238780    12.251010     2.812740     8.566580    11.923600     7.055470     7.750110    13.399610     3.947950     6.397400    15.356600     0.809560    10.434810    14.305190     8.687050     0.191140    12.222800     8.411570     3.935050    12.844870     0.167380     7.853180    13.928990     0.332710     2.569890     9.824030     8.323940    11.469820     8.160740    10.934270     6.441850    13.343810     5.506390     9.916710     9.517520     7.885600     8.801210    11.263170     2.328030     3.215750    15.494810    10.493280     7.145520    15.579530    10.675080     1.245810    15.587920     5.087030     1.584680    15.482500     6.563400     4.670050    15.247360     0.711290     5.070680    15.578660     6.596910    10.575750     8.747800     0.176720     3.277210     7.710570     1.326000     3.243100    12.747320     6.504410     1.530310    11.296570     0.035940     7.114910    13.278160     7.870120     6.868580    13.343020     8.287930     5.317200    13.039850     7.449460     2.678340     8.980980    10.184550    11.500850     9.016400    11.047260     1.163690    13.288210     3.314550     0.105160    14.694700     3.196050     0.787260     9.497170     3.873000     9.918150    15.797530     4.574050     7.919210     9.301620     7.485200     4.436250     9.397650     3.247670     5.443080    10.873120     3.015980     1.513640    11.038740     6.772710     0.353930    11.134760     5.203360     0.573850     8.672430     8.844430     4.470790     9.466850     9.882510     2.950260    11.341980     6.182210     6.382470    10.506670    10.930030     3.085590    11.771840    11.232700     4.650610    12.653330    11.540100     3.300210    10.423220     5.455820     5.225280    10.689620     3.233010     6.138260    13.505710     9.674440    10.447950     8.377800     4.959030     8.039430    14.872380     1.605680    10.785330     8.060880     3.631660     7.198470    14.877500     4.486660     6.552260     8.046860    11.473470     8.725050    11.151120     7.476010     8.229190    11.368900     2.770680     9.015430    12.408920     6.439500     8.311810    13.113900     3.539840     7.272550    12.637890     1.903620     8.577600     7.133280     0.895750     8.647260    12.581760     4.452080     6.083540     9.201930     2.326250     9.757550    12.945180    11.276650     8.569970    13.712780     1.185870     2.121600    14.997230     8.313890    11.169420    14.164470     8.052690     0.912610    10.380720     3.089340    11.486730     8.108400     9.954930     6.385580    12.674120     5.753770    10.574880    11.369680     8.125440     4.331980    10.708210     2.416080     4.059610    12.142510     9.382690     3.713520     9.552220     7.992760    10.585510    13.684830     0.086980     7.427480    11.824310     3.116030     3.408690    15.862300    10.331790     8.030690     9.340020     6.934860     8.987280     8.673060     8.083980     8.400960    15.102030     9.627610     6.830030    10.667790     1.015410     6.053870     9.130880     4.558940     1.002000     8.133840     5.193860     2.166750    13.211320     4.837200     3.257330    13.720520     3.929880     4.481150    14.339710    10.897190    10.020170    15.833970     1.039210     9.628150    14.720270     0.019260     2.042760     9.114040     8.055820     0.538980     9.101230    11.276610     6.418570    13.192460     4.552010     9.684200    14.915820    10.113510     0.795380    16.149050    10.147370     1.812880    15.046530     5.794880     1.899520    15.625810     4.504000     2.428250    15.923790     7.278970     4.141760    14.932880     7.060230     5.264850    14.710990     0.669620     4.244420    15.319890     1.610240     5.369040    14.899480     5.945460    10.249260    16.135940     6.665340     9.788000 
   16.942780     9.650550     9.954640     3.325890     9.558370     9.916060     6.568170     9.858830     9.716300     1.582440     0.899840     9.937160     4.781040     1.101400     9.726790    16.893440     3.890440    10.180020     3.398560     3.837070    10.106250     8.733060     5.986130    10.401200     1.730650     6.706340    10.240170     5.300480     6.666010    10.129110     1.690860    10.714470     1.186330     5.118070    10.942150     0.993180    16.703670     1.535670     1.272310     3.188820     1.655770     1.292680     6.909400     1.946630     0.700250     1.717220     4.676900     1.430480     5.217840     4.570380     1.279580    16.957860     7.711800     1.469360     3.441270     7.717850     1.304900     6.963970     8.087420     1.115220     0.027990     9.530950     4.258510     3.567970     9.553250     4.118510     7.004990     9.558620     4.282020     1.647690     0.721240     4.017550     5.043780     0.928610     4.264590    16.883310     3.781790     4.399740     3.413180     3.740730     4.295020     8.839980     5.496140     4.675090     1.919940     6.609240     4.368250     5.497960     6.657000     4.508570     1.666960    10.697030     7.067570     5.163620    10.830410     6.969770    16.951530     1.543140     6.938570     3.212560     1.750020     7.021030     7.048990     1.988090     6.329430     1.731600     4.725300     7.148010     5.242910     4.601730     7.100270     0.015540     7.626410     7.128360     3.620190     7.611410     7.082090     7.057110     7.826730     7.089260     0.057820    11.518500    11.221410     3.336820    11.501110    11.152020     6.610030     0.043930    10.834790     1.307320     2.635650     0.011430     4.776030     2.595170    11.479300     0.067930     5.729810     0.059850     3.531250     5.705950     0.101700     6.948010     6.032350     0.223360     1.633230     8.552660     0.162790     5.161580     8.849290    11.269020     0.082800    11.434940     5.372670     3.404190    11.453980     5.526530     6.775190    11.670540     5.497010     1.370350     2.658040     5.644770     4.839180     2.599060     5.782250     0.195300     5.630700     5.813020     3.546450     5.751240     5.832970     7.076570     5.887340     6.165870     1.730920     8.566990     5.831370     5.297490     8.762120     5.585210     8.086960     0.450330     4.026980     8.461590    11.143320     0.141970    10.884120    11.315060     6.954790     8.097600     5.219280     1.646140    14.056480     2.805370     0.273650    14.234210     8.643030     5.897860    13.609630     5.259210     3.082540     9.472030     2.883770     9.680940    10.267380     2.688770     6.647180    11.512830     4.715740     0.018100    12.799130     2.649180     4.268630    10.077650     8.504020     2.003940    11.246530     5.579040     6.299510     9.686550     3.303470     1.300120    12.136980    10.011830     4.998700     9.785570    11.155780     2.440250    12.133280     9.191660     9.688840    15.598820     4.937400     7.188600     8.566430     5.052820     7.575740     7.873700     0.788150     9.293880    12.480760     2.211170     8.867760    12.695130     7.499840     7.700570    13.173770     3.664300     6.789780    15.535520     0.704020    10.090970    13.757360     8.516200     0.287610    12.071180     6.710210     1.725850    13.691920    11.633000     8.523000    12.551590     0.144940     3.031470     9.434340     9.195410    10.319940     8.316420    10.831610     6.592490    13.351960     5.359990     9.772640     9.747490     8.402660     4.914640     9.709730     2.798330     3.885330    15.685030    10.632890     6.943400    15.511940    10.630490     1.239680    15.318580     5.086030     0.869430    15.535390     6.641080     4.769020    15.619760     0.571400     4.110490    15.403650     6.744400    10.393900     8.701480    11.655540     3.503910     8.568920     1.342290     4.138940    12.952300     5.923560     2.803720    11.304850    10.972130     6.116120    13.903610     8.150010     6.682860    13.508560     9.068280     5.495200    14.059700     5.556540     3.903890     8.841700    10.392900    11.221560     8.985870    11.284840     0.966540    14.823040     2.341150     0.527650    13.628630     2.524170    10.991410     8.944410     3.639680    10.063720    16.065240     4.485090     7.920760     9.658340     8.362470     2.945590    10.381910     3.608380     6.851610     9.775780     2.947680     2.239430    10.764940     5.168160    11.027970    11.093490     3.984990     0.500330     9.226560     8.393750     1.467660    10.038790    10.199360     2.313820    11.711470     6.414550     6.486750    10.663850    11.662000     2.497300    11.423030     9.363760     4.734460    12.426800    10.561160     4.251570    10.715560     5.673740     5.443980     9.273760     2.490740     6.396800    11.238970     9.153050     9.949260     9.351140     5.207620     6.984610    15.670640     1.631920     9.874870     8.708670     5.513990     8.391040    14.922410     4.303290     6.855910     7.330030     1.149450     8.557770    12.491830     8.200990     8.354850    11.634290     2.595860     9.129420    12.832180     6.680480     8.242710    13.049520     3.130870     7.577340    12.505710     1.322660     8.519290     8.430640     1.539190     9.603250    12.408340     4.251330     6.586990     9.440620     3.194030     8.768370    13.050120    11.012140     8.898640    12.442150     0.979820     3.550900    14.553330     7.946290    11.543200    13.197410     7.901060     0.804230     9.204330     2.643910     0.758670     8.000780    10.080090     7.148970    12.846940     5.036150    10.561860    11.696780     6.053360     1.071460     9.418260     3.650300     4.306540    11.360250     7.355350     2.001730     8.679170     9.167170     9.664040    14.317780    11.095050     7.922780    10.649100     2.693140     4.255090    16.324600    10.432830     7.738380     9.463640     7.490900     5.075480     8.926180     8.972100     5.081480    15.354470     9.759030     6.608100    10.872570     0.500420     6.855820     8.745790     4.383230     1.495390     8.044080     5.387480     2.671640    13.076590     3.323590     3.567330    13.208240     2.920910     5.105880    12.759940     9.104400    10.452740    14.723690     0.403090     9.507890    13.461390     0.234550     2.724690     9.369550     8.287150    10.722050     9.310500    10.985990     6.770890    13.454850     4.634410     9.131300    14.873660     9.973640     0.875280    16.025980    10.133890     1.887650    14.870540     5.238110     1.718320    14.907700     4.298180     0.425120    15.842790     7.040560     3.980890    15.173410     7.438560     5.167020    16.009110     0.706820     3.167890    15.389040     1.435750     4.475130    14.663930     6.099790    10.230480    15.689410     7.032090     9.508910 
   16.824540     9.808080    10.058660     3.492330     9.581630    10.156300     7.006630     9.805760    10.124270     1.865760     0.755710    10.018740     5.045990     0.907930     9.945600     0.120500     3.630180    10.000820     3.505670     3.754550    10.144520     8.817330     5.474620    10.256580     1.599590     6.669920    10.013340     5.283060     6.749930    10.288970     1.764480    10.567850     1.195730     5.230820    10.796540     1.223170    16.968400     1.703770     1.287490     3.388990     1.734170     1.397890     7.026890     2.116830     0.671050     1.664760     4.747590     1.136470     5.256460     4.806910     1.351810    16.842240     7.591580     1.155030     3.448740     7.741570     1.283390     7.216000     7.781920     1.210730    16.935690     9.624110     4.210750     3.341600     9.475250     4.122860     6.825910     9.769170     4.139550     1.504390     0.755450     4.046660     4.998560     0.883570     4.021840    16.937980     3.923080     4.285900     3.329180     3.818380     4.194510     8.455110     5.079350     4.508460     1.685840     6.779960     4.350400     5.291320     6.577640     4.406690     1.730170    10.697320     6.875040     4.905320    10.619420     6.865330    16.854800     1.727190     6.863320     3.163680     1.808730     6.919800     6.635470     1.919190     6.785160     1.567580     4.629450     7.059980     5.000320     4.645890     7.021370    17.018410     7.701600     7.119040     3.447120     7.687670     7.081160     6.960680     7.776520     6.968020     0.118690    11.566120    11.496440     3.503960    11.521600    11.318100     6.795400    11.690240    11.204110     1.537220     2.696970    11.431000     4.899100     2.600200     0.048740     0.023660     5.691150    11.259530     3.619840     5.713350    11.488320     7.178600     5.896540     0.138500     1.353250     8.599620    11.332630     5.119540     8.732730     0.070670     0.034350    11.474900     5.545530     3.317480    11.492530     5.189770     6.627700    11.681680     5.650830     1.275490     2.851550     5.605670     4.643970     2.618630     5.621330    17.032410     5.838590     5.791370     3.374000     5.826680     5.730680     6.800790     5.754750     6.127850     1.593610     8.608580     5.727730     5.207410     8.685710     5.440430     8.056920     0.618220     4.126170     8.168260    10.955400     1.298880    10.681880     0.062410     6.914420     8.399020     4.649680     1.466610    14.089410     2.770510     0.186840    14.034990     8.589430     6.012860    13.101030     5.438620     3.713980    10.270030     2.499130    10.873890     9.933430     2.657250     8.008250    11.674320     5.893580     0.118110    14.232130     2.649470     4.871650    10.245380     9.189600    11.163340    11.251180     5.305670     5.870320    11.067620     3.738780     1.735260    12.058630     8.722680     3.990730    10.633120    11.142760     3.937760    12.507500     9.616880     9.515630    15.715440     4.867220     7.099720     7.896160     4.790840     7.494790     8.412420     0.820410     9.858510    12.805290     2.298030     9.498700    12.981960     7.319290     8.061590    13.266190     3.643090     7.154350    15.860030     0.875330    10.126410    14.105800     8.889300     0.200840    11.817400     8.126600     1.287050    13.234810    11.725590     8.138010    11.751890     1.863330     3.521370    10.182140     7.248440     7.824440     8.128420    10.984440     6.858950    13.472740     5.198060     9.728620     9.631840     8.050340     4.267180     9.630850     2.437790     5.095720    15.474990    10.621150     6.956630    15.558500    10.862670     1.096270    15.218650     5.065900     0.768190    15.280670     6.540730     5.041130    15.425160     0.305770     4.465150    15.658200     6.577640     9.807220     7.963670     0.726340     3.189390     8.633870     1.351080     4.487570    12.638610     5.614090     2.849660    10.705180    11.744240     5.949790    13.693420     7.925680     6.560310    13.301870     8.788460     5.407110    12.409930     5.115510     4.289770     8.987780    10.589750     1.007430     7.820660    10.373210     2.057740    14.748100     2.126810     0.602560    13.775780     2.429070    10.873020    10.563910     2.554950     0.276370    16.122260     3.935900     7.202460     9.348040     8.971650    10.768810     9.833410     3.005700     7.103920    11.559080     4.391960     1.249290    10.729220     5.954980    11.377530    11.842500     6.694560     0.658880    10.879790     9.242340    10.428450     9.684300    11.051060     4.151830    10.743310     5.930570     6.478690    10.917100     0.265130     3.723220    11.169690     8.513090     4.267710    11.985960     9.626500     3.742240    10.542200     4.962830     5.262780    10.022420     1.694570     7.875990    12.774250     8.949100     8.836890     7.844860     3.829850     7.346420    15.997650     0.621540     9.225240     8.108300     4.988920     8.410330    14.725520     4.783510     7.132740     7.760100     1.395480     9.479850    11.990870     7.351020     7.774650    11.862490     2.367520     9.777740    12.983360     6.656790     8.758370    12.979470     3.195730     7.968180    12.966480     1.396680     9.117240     9.207030     1.361310    10.196460    12.504490     4.333370     7.024050     9.779040     3.336710    10.704120    12.909870    10.921520     8.717460    12.530480     2.100610     4.094800    14.812020     8.136080     0.261990    13.387500     8.540390     0.791120    10.162560     4.041440     1.748760     7.819580    10.497130     7.614250    12.936140     5.636060    10.429040    11.071400     8.629890     0.911290     9.075770     3.209960     4.878640    11.730180     8.361660     2.228070     9.459140     7.650240     7.343620    13.965660    11.411730     7.549670    10.358800     2.384650     4.405640    15.890890    10.350080     7.746980     9.359110     7.107020     4.389500     8.825890     8.556600     4.415470    14.971010     9.879900     6.597830    11.600850    11.763260     7.275070     7.977940     3.775670     1.464830     8.236280     5.082970     2.342910    15.026920     3.125320     4.597800    13.972750     2.951800     5.813970    13.141020     9.428270    10.267960    15.959330     1.874230    10.198880    11.640370     2.599340     2.868960     9.653890     6.578030     8.400280     9.041100    11.277250     6.884720    13.427040     4.264150     9.963080    14.926770    10.205850     0.730930    15.904120    10.492590     1.953780    15.324910     4.887530     1.698950    14.834760     4.228750     0.451020    14.731570     6.142890     4.314740    15.179770     7.487780     5.028050    15.759290     0.415780     3.510900    15.109230     1.168630     4.854360    14.896230     6.015150     9.510490    16.006950     7.033370     9.041810 