-1400.139500
-1400.904200
-1401.867100
-1400.953600
-1400.848000
-1401.201500
-1400.897800
-1401.125900
-1401.443100
-1400.560900
-1401.519900
-1400.836800
-1400.523900
-1401.200200
-1401.199900
-1401.022200
-1400.705500
-1401.314800
-1401.863900
-1401.178700
-1402.198900
-1401.033500
-1402.507300
-1402.080400
-1400.933900
-1401.945900
-1400.988800
-1401.514500
-1401.551300
-1400.891900
-1401.245900
-1401.024400
-1400.801200
-1400.593600
-1402.491500
-1402.253700
-1401.143100
-1401.382200
-1401.050900
-1401.571700
-1400.590000
-1401.027700
-1401.060200
-1401.881300
-1401.650400
