   -0.238932     0.582628     0.037043     0.296307    -0.131605    -0.127033    -0.441530     0.006638     0.336917    -1.092289     0.602335     0.221550     0.297351     1.214805     0.073419    -0.208646     0.279074    -0.232351     0.633977     0.106141     0.224690    -0.764420     0.460659     0.161110     0.750377    -0.650956    -0.181562     1.271618     0.904528    -0.670318    -1.316222    -0.206557     0.434675     0.441889     0.165915    -0.587895     0.586228    -0.165182    -0.301305    -0.506256    -0.004974    -0.533354    -0.732375    -1.007376    -1.035503    -0.344871    -0.047526    -0.520300    -0.887979    -0.144964    -0.004889    -0.173638     0.243546     0.917596     0.423271     0.966502     1.075479    -0.508608    -0.046615     0.164987     0.476837     0.849035     0.102992     0.178470     0.220110     0.311216    -1.019367    -1.104942    -0.484569     0.034522    -0.311555     0.273782     0.077616     0.252719     0.528296     0.230457     0.305270     0.339768    -0.034135     1.241312    -0.317853    -0.152649     0.184258    -0.436631    -0.213788    -0.198947     0.999667    -0.666711    -0.731345    -0.513395    -0.283269     0.759120     0.444165     0.288579    -0.352700     0.245324     0.247165    -0.934635     0.378070     0.273348    -0.265493     0.521465     0.035671    -0.115181     0.126995     0.618738    -0.548780     0.020157     0.367153    -0.203642    -0.397296     0.515168     0.518355    -0.093390    -0.041269     0.296360     0.644972     1.263102    -0.952767     1.133668    -0.305963     0.102933     0.051396     0.658746     0.328722     0.003129    -0.091633     0.758995     0.710673     0.013042    -0.151030     0.487998     0.552699     0.223362    -0.109779    -0.635935    -1.141603     0.356030    -1.375333    -1.839674     0.543122     1.849724    -0.405152    -1.071241     0.427539     1.303340    -0.270534    -0.452517    -0.612235     0.361679    -0.990458    -0.066144    -0.325092     0.659189     0.158527    -0.311455    -0.868653     0.213870    -0.063485     0.461215     0.131983    -0.617629    -0.289406    -0.420869    -0.128274    -0.708423     0.159820    -0.685671    -0.707071    -0.530102    -1.201053     0.805860     0.348624     0.013636    -0.626021    -0.976557    -0.587964    -0.904152     0.710553    -0.665444     0.150042    -0.879300    -0.962625     0.230201     1.356685    -0.050945    -0.316324     0.143751     1.073413     0.271674    -0.149859    -0.157829     1.216035    -0.413368     0.999453     1.361574     0.551670     0.216863    -1.358609     0.095373     0.914871     0.927288    -0.357961     0.345074    -2.396507    -0.331420    -0.790444    -0.172519    -1.435675     0.103561     1.150038     0.757545    -0.017954    -0.414628    -1.863651    -0.285236     0.400352    -0.516893     0.245953    -0.384994    -0.079700    -1.919419     0.768377    -0.832206    -1.803156    -1.430803    -1.229403     0.851329    -1.725312     0.014454    -0.656414    -1.420960    -1.499946     0.729502    -0.377464    -0.065793    -1.262019    -0.265439     1.603095     1.227289     0.090248     0.741501     1.498854     1.719830    -1.350658     0.671953     0.749887    -0.591861     0.322434    -0.483418     0.705994    -0.053253     0.189273    -1.047116    -0.921507    -0.428581    -0.119892     0.172678     0.997990    -0.562529    -0.144179    -0.070346    -0.212650     0.306210    -0.533822    -0.589937    -1.032024     1.995959     0.344448    -0.037713     0.420361    -1.496282    -0.366694     0.341883    -1.239915    -0.003323     2.047297     2.382566     0.253428    -0.199398     0.340622    -0.928554     0.703800     0.846555     1.489520     1.321157    -2.064825    -0.546409     0.995575    -0.894482    -1.257900     0.355386    -0.986090    -1.206188    -0.666144    -0.255445     0.812588     0.141291     1.149545     0.972759     0.195210     0.417284     0.143572     0.841036     0.932814     0.442770    -0.179202    -0.101051    -0.759250    -0.762327    -0.737907     0.651419    -0.723554    -0.094740    -0.581968     0.412101    -1.110147    -1.541169     0.241505    -1.358817     0.070557     0.094334    -0.512776    -0.406074    -0.493231     0.770264    -0.795570    -0.687131     0.180186    -0.316526    -0.458207     0.489572     0.204143    -0.530585     0.898047    -1.422002     0.605887     1.409455     0.280071     1.795571    -0.213797     0.370984    -0.041979    -0.788912     0.667707    -0.406207     1.745285    -0.272614     0.794539     0.019176     0.053867     0.358514     0.155020    -0.050830     0.136653     0.630129    -0.900594     0.011592     0.282063    -0.314553     0.542530     0.284753    -0.019928     0.101464     1.064867     0.685251    -0.001246    -0.465063     0.983081    -0.421775     0.263499     0.040966     0.401467     0.954543     0.359291     0.150997    -0.200690     0.262184    -0.118059     0.122049     1.349735     0.599070    -1.413143    -0.289464     0.019068     0.543222     0.147494     2.129717     0.380320    -0.059888     0.362660    -1.378152    -1.259495    -1.686138     1.001760     0.550353    -0.115973    -0.040005    -0.339730    -0.501810     0.453795    -1.098887    -0.244497     0.828530    -0.325989    -0.014524    -0.816443    -0.862042     0.194691    -0.149839    -0.127295    -0.022169     0.225252    -0.309305    -0.542234    -0.453390    -0.302692    -0.179193    -0.076324     0.070748     0.161691    -0.054890    -0.300325    -0.140861     0.799408     0.232503    -0.429876    -0.109722     0.645190     0.528596     0.877718     0.947668    -0.269613    -0.201164    -0.078063     0.286821    -0.304772    -0.427339     0.868138     0.175233    -0.065271    -0.418580    -0.634323    -0.206538    -0.327582     0.271751    -0.165823     0.413488     0.432482     1.319302    -0.651572     0.401641     0.306724    -1.107270    -1.607743     0.068164     0.094693    -0.558860     0.644261     0.594304    -0.354915     0.067247    -0.904268     1.646746    -0.053024     0.204718     0.700678     0.366371    -0.035206    -0.319649     0.120145     0.003928    -0.359975    -0.369693    -0.646296     0.539248     1.205188    -0.275487    -0.319134     0.071927    -1.037059    -0.582989    -0.003447     1.807466     0.455960     0.504487     0.227112    -0.354025     0.365769     0.002299     0.086031    -0.251011     0.254491     0.341885    -0.227150    -1.050326    -0.227296     0.303660    -0.508305     1.492727     0.968250    -0.185761    -0.438859    -0.722101    -0.152890     0.137348    -0.763439    -1.308581     1.665567     1.050544     0.201648     0.589934    -0.471492    -0.672285    -0.209468     0.408565    -0.604776     1.036002     0.441549    -0.433552     0.472076     0.826740     0.128118    -0.015260     0.094618     0.731869     0.222535    -0.283573    -0.261388    -0.130499    -0.123255 
    0.160523     0.465403     0.704705     0.176652    -0.374974    -0.495905     0.040300    -0.895058     0.282992     0.263879    -0.296270     0.289196     0.548674     0.081948     0.291998     0.259188    -0.080148     0.334048     0.027143    -0.044934     0.920933    -0.555899     0.084574     0.064480    -0.406775     0.056719     0.730314     0.191632     0.526089     0.637167    -0.101063    -0.248486     0.197251     0.750110    -0.252463     0.937612     0.087476    -0.203210    -0.084295     0.597761     0.466446    -0.742078     0.387798    -0.137000     0.019373    -0.379039     0.249768    -0.336727    -0.008863     0.496079    -0.110597    -0.729444    -0.409300     0.793696    -0.523313    -0.001947     0.284805    -0.322645     0.429925     0.578656    -0.046935     0.196350    -0.521489     0.728091     0.615974    -0.055205     0.732529     0.733456    -0.706213     0.138274     0.418847     0.076369    -0.325012     0.706454     0.180862    -0.149902     0.329183     0.393927    -0.103390     0.318507    -0.236918    -0.910137     0.124242     1.225063    -0.260879    -0.151114     0.453510     0.352068    -0.135658    -0.263249     0.350300    -0.338385    -1.061217     0.369242    -0.379581    -0.010654     0.575137    -0.378777    -0.169802     0.666135     0.470604    -0.010750    -1.151433     0.351253     0.117532    -0.228223     0.012789    -0.883963    -0.631519    -0.176013    -0.067706     0.058463     0.162437     0.367184    -0.046773    -0.543665    -0.389775    -0.170005    -0.896637    -0.196686    -0.649280     0.012191    -0.445567    -0.092193     0.995241    -0.135708    -0.626525     0.787249    -0.321896     0.653092    -0.209744    -0.409319    -1.511218     0.426012     0.280887     0.414972     0.255221     0.409495     0.406534    -0.081298    -0.876926    -0.761564    -0.320261    -1.994201     0.734321     0.148207    -1.115168    -1.280376    -1.063273    -0.951133    -0.238024    -0.718608     0.652858    -0.679737    -0.275970     0.544889     0.227711     0.283130     0.466442    -0.068188     0.724951    -0.548943     0.586164    -0.906734     0.533712    -0.027297     0.029650    -0.096337     0.197739     0.124026     0.601914     1.192891     0.651895    -0.843898     0.095825    -0.696782     0.736123    -1.245651    -0.373704     1.081605    -0.032363     0.358054    -1.608000    -0.799701     0.150955    -1.158384     0.343998    -0.142493     0.308984     0.916334    -0.778004    -0.489028     0.466415    -0.613843    -0.034775     0.608604     0.245341    -1.119354    -0.072069    -1.958441    -1.488260    -1.145675    -2.275712     0.037646    -1.013527     0.864353    -0.419535     0.532096     0.683673     0.101952     0.560086    -1.898457     0.260955     1.831610    -1.049541    -0.150262     0.932357     0.884006     1.307571    -0.065419    -0.658026     1.344846    -0.024616    -0.069399     0.823066     1.182789     0.750215    -0.087418    -0.778445     0.013334    -0.562343    -0.835270    -1.669998     0.508624    -0.378230    -0.287550     1.292198    -0.443615    -0.629943    -1.562641     0.758586    -0.290116     0.260386    -0.626749     0.520696    -0.220600    -0.803302    -0.153756     0.241667    -0.129160    -0.566427     0.402005    -0.174709     1.010139    -0.490592     0.131696    -0.198058     0.124244    -0.755286    -0.543163     1.586455     0.539321     1.430191    -0.526704     0.610846     0.114859     0.168451    -0.071109    -0.414875    -0.090808     0.375533    -1.459054    -1.178526     1.062473    -0.334123     0.223520    -0.498654     1.063830     1.011702    -0.436653    -0.159047    -0.360166     0.640073     1.771481    -0.239529     0.917181    -2.315863     1.027173     1.705169    -0.541810    -1.548317    -0.691234    -1.103572    -0.738834     0.389422    -0.769602    -0.316023    -0.487040    -0.529523     0.892745     0.144731    -0.077301     0.624045     0.942530     0.482527    -0.093395    -0.164600    -0.010573    -0.905109    -0.521316    -0.081400    -0.005058    -0.056375     0.109593     0.923352    -0.674455     1.229562     1.761086     0.416367    -0.992272    -0.615756     0.515753     0.427731     1.566720    -0.168591     0.214098     0.092539    -0.236920     0.159312    -0.115626    -0.275992     0.422403    -0.090221    -0.005458     0.668935    -1.364130    -0.092123     0.057314    -0.007970     0.131343    -0.865736    -0.158718    -0.362864     0.605358    -0.692008    -0.346365     0.347893    -0.262696    -0.207898    -0.662892    -0.019476    -1.816319     0.840111    -0.000143    -0.802964    -1.268692     0.268967    -0.140941    -1.090792    -1.023138    -0.142661     0.582488    -0.605565     0.017718     0.153160    -0.474399    -0.165608    -0.119791    -0.002559    -0.554974     0.052386    -0.141503     0.934501     0.425843     0.570553    -0.025706    -0.329577     0.264330    -0.263709    -0.288999    -0.793471     0.289784    -0.331870     0.042232     0.090358     0.944888    -0.424568     0.517356     0.978033     1.141368    -0.068083     1.287518     0.670542     0.617999    -0.377016    -0.366916     0.011638     0.194784    -0.149520    -0.013400    -0.118023     0.628076    -0.039997     0.205911    -0.813437    -0.403994     0.265389    -0.199231     0.902851    -0.042799     0.522033     0.634621    -0.077747     0.200752     1.337687     1.049058     0.005747    -0.255538     0.519763    -0.243247    -0.138645    -0.362937     0.452192     0.190578    -0.116066    -0.037524    -0.480045    -0.522627     0.473291     0.167092     0.003694    -0.109170     0.386038     0.120237     0.208602    -0.539669     0.124306     0.714250     0.366798     0.553559    -0.404110     0.265484    -0.609882    -1.048539    -0.153377    -0.464966     0.329500     0.010974     0.375714     0.015495     1.152872    -0.034781    -1.024828     0.553820    -0.570617    -0.554499     0.135276    -0.219066     0.261240     0.064292    -0.318899     0.368735    -0.776042     0.783341    -0.621639     0.171632     0.597709     0.138679    -0.496845    -0.241809     0.161917    -0.207111     0.025550     0.377622     0.489435    -0.266074     1.501942    -0.219646     1.605603     0.205489    -0.266378     0.497957    -0.503052     0.645242     0.469233     0.269163    -0.003686     0.474607    -0.556909    -0.601343    -0.469339     0.540358    -0.061186    -0.062130    -0.174988     0.294878    -0.037386    -0.077777    -0.056773     0.891257     0.074943    -0.164209    -1.324903    -0.266192     0.039285    -0.699919     0.474814    -1.226874     1.660946     0.269001     0.440893     0.769032    -1.553232    -0.338711    -0.626112     0.278096    -1.166197     0.941775     1.463581     0.238220    -0.172344    -0.222003     0.016316     1.196761     0.280871    -0.759095     0.248565     0.470408     0.347236     0.695876    -0.531573 
    0.097457     0.396325     0.657963    -0.236242     0.192344     0.326532    -0.022708    -0.219769    -0.280863    -0.096915    -0.071269     0.032582     0.455311    -1.081782    -0.134013     0.184481    -0.092428    -0.099246    -0.416278     0.172368     0.112659     0.078874    -0.172488    -0.018084    -0.430607    -0.034043    -0.334699    -0.472307     0.013797     0.595711     0.072185    -0.062055    -0.158739     0.389741    -0.665481    -0.010182     0.891284     0.530791    -0.434157     0.335550     0.369009    -0.482861     0.028074    -0.367927    -0.580857    -0.692774    -0.069939    -0.613311    -0.293109     0.478409    -0.066607     0.471180    -0.451201    -0.629610     0.572593     0.473373     0.528213    -0.025061     0.052641     0.291133     0.217041    -0.309407     0.010061    -0.430765     0.370977     1.134575    -0.721685     0.694148    -0.093217     0.314553     0.175977     1.297212    -0.362170    -1.238321    -1.137377    -0.157106     0.746201    -0.033008     0.410571    -0.092763     0.601626    -1.046748     0.287995    -0.194232    -0.917847     0.380751     0.099620    -0.412797    -0.584380    -0.141825     0.765631    -0.470634    -1.103852    -0.002221    -0.759247     0.125895    -0.187247     0.029903    -0.303178    -0.079232    -0.557535     0.302152     0.898017     0.245119     0.813388     0.302795    -0.787522     0.183628     0.311756     0.033410     0.085813     0.966389     0.178048    -0.339776    -0.396816     1.322161     0.634046     0.171290     0.732431     0.817030    -1.310634    -0.745957    -0.134316    -0.626340     0.200604     0.186663     0.634770     0.224770     0.861746     0.078372     0.604892     0.531874    -0.230874     0.689716     1.188944     0.090126     0.154194     0.376806     0.328122    -0.530388    -0.657346     0.220575     0.447310    -0.225652    -0.904566     0.049800    -0.567447     0.439442    -0.525852    -0.181977    -0.021174     0.589174     0.564436    -0.514080     0.314311    -0.371507     0.010243    -0.053232    -0.893059     0.631872    -0.273618    -0.220133    -0.693152     1.397254    -0.129349    -0.594617     0.617074    -0.431521     0.609911    -0.937260    -0.851560    -0.241852    -0.660655    -0.767853    -0.807575    -0.278948     0.062182     0.517834    -0.438174    -0.408571     1.509876     0.948610     0.127216    -0.828628     1.430330     0.459094    -0.445436     1.701486    -0.659621     0.581166    -0.642292     1.956373    -2.697654     2.156632    -0.572819     2.692262    -1.258019     1.189319     1.207228    -0.841291     0.902916    -0.622562     0.751707     0.347680    -1.910781    -2.079533    -0.402510    -0.449375     1.410348    -1.291693     0.087725     0.511858    -1.804010    -2.355849    -0.060276     1.620729    -0.049567    -0.384882    -0.533709     0.315084    -0.640108     0.085521    -0.711767    -0.855350     0.055244     1.835647     0.659367    -0.041191     3.000497     0.481447    -0.808999     0.404782    -0.086000    -0.159499     0.066485    -1.031423    -2.688363    -0.688426    -0.151391     0.055646     0.935865     1.624790     0.780646     0.398841    -1.320167     0.054495     0.947514     0.937050    -1.324768    -1.030144    -0.685143    -0.342711     1.439302    -0.617732    -0.440573    -0.586454     0.731827    -0.157253     0.776561    -0.580795    -0.659130    -0.441977     0.406169     0.506231    -0.250097    -1.088395    -0.312300     0.438567    -0.279268     0.990695    -0.010185    -0.170368    -0.347960    -0.145837     1.815066    -0.183436     1.884627    -0.992142     0.255162     1.186322    -0.211003     1.411178    -0.328936     0.320138    -0.673341     0.315384    -0.143379    -0.373294    -0.108228    -1.664326     0.550721     0.486475    -0.686781    -0.901486     0.848459    -0.069766    -0.123928    -0.485927     0.502415     0.135017    -0.635726    -1.107664    -0.354137    -0.403397     0.354020    -0.388976     0.118232    -0.098913     0.531858    -0.487876    -0.033614    -0.054703    -2.097339     1.231222    -0.948652    -0.193901    -0.028811    -0.565926     0.536045    -1.131424    -0.665924    -0.350731     0.238186     0.054775     1.962752    -1.820964     0.134311     0.607619    -0.303297     0.326901     0.475960    -0.324253     0.367099    -0.043827     0.050683     0.076702     1.164857     0.156790    -1.245146    -0.152360     0.859914    -0.116099    -0.218766     0.217059    -0.121057     0.689458    -0.865516     0.906907    -0.398409    -0.166816     0.159498     0.951085    -0.013571     0.313271    -0.124689     0.075062     0.018816    -0.105515     0.227364     0.251468    -1.182540    -0.948406    -0.097936     0.462055     0.673002     0.194153    -0.223037     0.235683    -0.531170     0.346347    -0.092664     0.822347     2.050123     0.939181     0.716701    -2.209600     0.062204     0.752762    -0.406309     0.154565     0.571663     0.369423     0.503197     0.078990     0.075098     1.103537     2.097035    -0.167738     0.188976     0.034887     0.284917    -0.105927    -0.158906    -0.313133     0.234727     0.536998    -0.425066    -0.818062    -0.128079    -0.022567     0.900462    -0.225915    -0.753964    -0.690993     0.745906    -0.423996    -0.810732    -0.095255     0.402021     0.327200    -0.054746     0.152132    -0.036562     0.237532     0.160355    -0.359641    -0.817350    -0.207292    -0.454557     0.089441     0.235863    -0.133643    -0.045605    -1.275992     0.934577     0.160476    -0.124747    -0.066859     0.177964    -0.085067     0.087477     0.324102     0.274834     0.265011    -0.313619    -0.258712    -0.234779    -0.311368     0.237262     0.233836     0.536736    -0.376384     0.209648    -0.102048     0.256085    -0.661667    -0.649090     0.603572     0.115283     0.603613    -0.755315     0.928693     0.507188    -1.301085     0.065135    -0.513823    -1.284971     0.253674    -1.402942    -0.270995    -0.601798    -0.021412     0.959829    -0.853555    -0.335864    -0.181739    -0.185560    -0.152918     0.029121    -1.370772     0.205970    -0.682111     1.121032     0.109305     0.139456    -0.302934    -1.558569    -0.345099    -0.703721     1.248568    -0.150627     0.205013     0.436742    -0.538632    -0.353750    -0.102042     0.950226    -0.221556     0.541960     0.241547    -0.239477    -0.318356    -0.072093     0.441993    -0.391636    -0.189268     0.157237     0.014962    -0.009544     0.083294     0.408314     0.105875    -0.063188     0.030143     0.263412    -0.263322     0.308550    -0.490139     0.046758     0.604812    -0.216735    -0.062826     0.395100     1.067224     0.318507    -2.288193    -0.925600     1.038354     1.381232    -0.512497     0.180773     1.190351     0.084251     0.429430    -0.132163    -0.146238    -0.047289    -0.162655     0.122947     0.247918     0.092377 
    0.418817    -0.330126    -0.191577    -0.210065    -0.419817    -1.002457    -0.010592    -0.406859    -0.631726    -0.728421    -0.007235     0.164223     0.371988    -0.388765    -0.222545    -0.946274     0.880383    -0.555304    -0.049469     0.140397    -0.527643     0.168926     0.205445    -0.531485     1.167909     0.616829    -0.648342     0.879206    -0.142736    -0.980229    -0.255857    -0.069754     0.356800     0.195633    -0.014421     0.393113     0.262426    -0.153265    -0.211785    -0.290878    -0.356761    -0.079752     0.344160    -0.340555     0.371731    -0.258405     0.070765     0.459572    -0.186372    -0.507256    -0.598610     0.478409    -0.220770    -0.283558    -0.641410    -0.172578     0.228451     0.035969     0.491060     0.290756     0.210816    -0.162133     0.378217     0.208901     0.210243    -0.227755    -0.300679    -0.082966     0.444442     0.171897     0.071455     0.693745     0.016706    -0.385264     0.712919    -0.651619     1.113706    -0.982684    -0.442952     0.320014     0.012117    -1.249639     0.713062     0.383128    -0.572958    -0.698862    -0.679003    -0.521159    -0.111849    -0.253881     0.255398     0.004605     0.579932     0.713475     0.428809    -0.066033    -0.600152    -0.542415     0.514787    -0.646473    -1.116779     0.598506     0.373923    -0.472890    -0.495002     0.451086     0.823521     0.268581    -0.823003    -0.366274     0.345814     0.271261     0.210527     0.098411    -0.215618     0.481712    -0.175555     0.068649     0.358484     0.304124     0.037007     0.859012    -0.365217    -0.815434     0.515328     0.303232     0.361063     0.145232     0.582815     0.410618     0.041392     0.751616     0.242124     1.109741     0.415927    -0.526042    -0.334383     0.604384     0.008921    -0.461335     0.693899    -1.053044    -0.159031     0.031675     0.189646     0.235037     0.298397     0.888851    -0.546090    -0.158973    -0.092653    -0.007893    -0.554592    -0.397368     0.420843     0.459185    -0.580638     0.606896    -0.858299     1.431875    -0.845631    -0.456353     0.990386     0.608228    -0.030215     0.287242    -0.374939     0.023302     0.819204    -0.752547    -0.259969     0.906352     0.366853    -1.887269    -0.408905     0.240959     0.118089     0.658782    -0.132692     0.015682     0.086859    -0.404226     1.683484    -1.487274     0.293812     1.418162    -0.061353    -0.236477     0.039244     0.021454     1.453544    -0.093308     1.186630    -0.501271     1.236434     0.884820     2.371084    -1.683012     0.157179     0.430376    -2.113999     0.305973    -0.031564     0.487845    -0.107771     0.083184     0.037765     0.028879    -0.748760    -0.313759    -1.162537    -0.669678     1.442669    -1.777711     0.010789    -0.469975    -0.683489     0.411314     0.692216     0.284693    -1.532639     0.808136     2.127918    -0.828334    -0.182204     0.471724     0.467318     0.234152     0.696755    -0.264249     0.375174     0.311130    -1.379155     0.339933     0.005633    -0.365136    -1.345743     0.995473    -1.227785     0.971882    -0.143111    -0.224350    -0.157262    -2.236130     0.681139    -0.952939    -1.642356     2.169058    -0.439937    -0.456882     0.486494     1.556662     1.064165    -1.729328     0.347266     0.256956     0.460198     1.078763    -0.759668    -0.840191     0.372926     0.406873     0.401756     0.570017    -0.531449    -1.820026     1.081639    -1.064914     0.186489    -1.389677    -0.143912     0.431380     0.162607     0.064046    -0.601196     0.185153     0.601292    -1.178378    -0.546944    -0.060417     2.061815    -1.598781     0.753479     0.443290     1.356530     0.583162     0.728888    -0.515770    -0.012831    -1.787298    -1.389908     0.544789    -0.029782    -1.359271    -0.353769    -0.789601     0.907869    -0.393284    -0.006717    -1.154808     0.292568     0.473679     0.211304     0.729001    -0.170923     1.237758     0.518877     0.069862    -0.016915    -0.632706    -1.956086     2.039822    -0.257219     0.101284    -0.687010    -0.366518     0.052314     0.832728     1.280033    -0.749439    -0.509616     0.358685     0.750255    -1.180645    -0.924831     0.911196    -0.757953    -0.237424    -0.297457    -0.155425    -0.218173     0.118403    -0.798805    -1.034022     1.186632     0.116273     1.190915     0.248029     0.574581     0.278529    -0.355469     0.112188     0.545540     0.979473    -0.933368     0.356973    -0.098512    -0.127037    -0.257980     0.435661     0.125928     0.179567     0.147373    -0.220567     0.411578     0.614212    -0.487998     0.710436    -0.682034    -0.860665    -0.661068    -0.845434     0.160027    -1.629537    -0.623015     0.466800    -0.194791     1.775682    -0.173025     0.038786     0.278237     0.614001     0.016711     0.296526    -0.295620    -0.224231    -0.216076     0.327279     0.113100    -0.497656     0.271851     0.159083    -0.042166    -1.331983     0.246110     0.231087     1.711550     0.433367    -0.396518    -0.089151    -0.250196     1.130496    -0.800431     1.591702    -0.162092     0.672482     0.079893    -0.111960    -0.011361     0.158518    -0.624875     0.100897     0.190053    -0.520096     0.498044    -0.049813     0.206417    -0.114413    -1.095306    -0.083336    -0.065623     1.411949    -1.487981    -0.456152     0.140611    -0.106982    -0.111790     0.772547     0.931955    -0.714881    -0.388100    -0.124573    -0.653370    -0.939219     1.686913    -0.400761    -0.306589     0.437218    -0.311923    -0.985927     0.577836     0.043325     0.073372    -0.597379     1.184597    -0.281922    -0.192391     0.340113    -0.352002    -0.080642    -1.222037    -0.268800     0.834415    -0.123740     0.599877    -0.501064     0.857477    -0.503055     0.649295    -0.662824    -0.342014     0.237296     0.608349    -0.224184     0.009673     0.767579     0.987621    -0.844707     1.927984     0.023412     0.222455    -0.119902    -0.473605     0.287112     0.002624    -0.555635    -1.327305    -0.557951    -0.323046     0.046063    -0.253457    -0.485049    -0.902108     0.081444     0.052791    -0.398775     0.737467     0.421071     0.583577    -0.081601     0.207854    -0.212847    -1.240946    -0.366920     0.102068    -0.417702     0.196832    -0.801410    -0.298623     0.147090    -0.222612    -0.053626     1.229018     1.142062    -0.427898     1.383422     0.294518     0.827396     0.039309    -0.352331    -0.294790    -0.359615    -0.859885    -0.278837    -0.349667     0.173909    -0.673344     0.325430     0.219635     0.968164    -0.619813    -1.019145    -0.692090    -0.136536     0.104886     0.601610    -0.488463     1.420526     0.270792    -0.878697     0.252384     1.730511    -0.440664     0.349618    -0.737479     0.075730    -0.115272     0.437229     0.552807     0.428863    -0.717823 