-1394.375300
-1394.243300
-1393.777200
-1395.211800
-1395.988800
-1394.901500
-1395.075100
-1395.181400
-1394.929600
-1394.577200
-1393.654000
-1396.107600
-1395.757800
-1395.261000
-1394.897900
-1395.610600
-1395.027000
-1395.889700
-1396.117800
-1394.994000
-1395.269400
-1395.189700
-1395.223200
-1395.479000
-1395.464200
-1395.280500
-1395.115500
-1395.948600
-1394.842300
-1395.745400
-1394.939300
-1394.554800
-1394.882200
-1395.648400
-1394.499200
-1395.835100
-1396.051000
-1395.505700
-1394.342700
-1395.801100
-1395.432400
-1395.195500
-1395.185000
-1395.109900
-1395.228100
-1395.924000
-1396.021600
-1396.435900
-1394.987900
-1395.573500
-1396.857600
-1395.095300
-1395.065900
-1395.608000
-1395.150400
-1396.568700
-1394.145100
-1395.592300
-1395.568000
-1394.744000
-1394.953900
-1395.428900
-1394.998500
-1395.094700
-1395.730600
-1394.807100
-1394.075800
-1394.740000
-1395.633900
-1395.391700
-1395.030600
-1395.210500
-1394.866300
-1394.435600
-1394.614700
-1395.316000
-1394.249800
-1395.039100
-1394.603800
-1395.844800
-1394.786900
-1396.271400
-1395.336200
-1395.822600
-1396.045900
-1395.588500
-1395.002700
-1395.565500
-1395.516000
-1394.389900
-1394.653500
-1394.935300
-1393.586600
-1393.846900
-1395.691700
-1394.450200
-1394.754400
-1395.801800
-1394.240400
-1394.817800
-1395.317200
-1395.326200
-1394.995300
-1394.711000
-1394.980000
-1394.526100
-1394.437800
-1395.274500
-1394.591000
-1394.371600
-1394.509300
-1395.292300
-1394.619200
-1393.622000
-1394.587100
-1395.297300
-1395.741100
-1394.817000
-1394.528600
-1393.802200
-1394.397800
-1395.736200
-1395.259200
-1396.880300
-1396.263100
-1396.721700
-1396.185300
-1396.964100
-1397.022000
-1396.303700
-1397.279200
-1396.318800
-1397.790400
-1396.910800
-1396.799400
-1396.610700
-1397.307000
-1396.551800
-1397.776100
-1397.244200
-1397.133500
-1397.458000
-1397.369200
-1397.668900
-1396.236500
-1397.078800
-1397.055600
-1396.842900
-1395.750800
-1397.189100
-1397.560900
-1395.442100
-1396.505300
-1396.451300
-1396.754400
-1397.851800
-1396.708600
-1396.918000
-1397.431700
-1397.478900
-1397.127700
-1396.939700
-1397.551900
-1397.442700
-1397.225300
-1397.100500
-1396.577600
-1397.217800
-1397.086500
-1398.054000
-1397.075900
-1397.877700
-1397.153400
-1396.829900
-1396.659800
-1396.677700
-1397.838500
-1395.805600
-1398.028700
-1396.825900
-1395.799000
-1397.028000
-1395.908700
-1396.631800
-1396.294000
-1396.794900
-1396.803800
-1396.745700
-1396.952600
-1397.484400
-1396.945300
-1396.862200
-1396.416100
-1396.758600
-1396.067000
-1397.001200
-1396.824500
-1396.305300
-1397.091700
-1397.571500
-1396.747600
-1396.546300
-1396.478100
-1396.010600
-1397.040600
-1397.276600
-1396.588900
-1397.003400
-1396.784000
-1396.903800
-1396.644600
-1395.926800
-1396.845400
-1396.694900
-1396.306700
-1396.081300
-1396.148100
-1396.308200
-1396.427300
-1395.767500
-1396.070500
-1396.593100
-1396.473800
-1396.632700
-1397.358100
-1396.341300
-1396.546800
-1396.489500
-1396.503000
-1396.248800
-1397.055300
-1396.345000
-1397.038800
-1396.975200
-1395.935500
-1396.451600
-1396.421700
-1396.512900
-1396.365700
-1396.040900
-1397.127700
-1396.478900
-1396.843300
-1396.411600
-1395.856300
-1396.388400
-1395.923500
-1395.094100
-1395.490900
-1395.650400
-1397.191000
-1396.180900
-1396.002900
-1395.917200
-1396.194600
-1395.850100
-1396.084600
-1397.116300
-1396.919700
-1396.968100
-1395.930000
-1397.521400
-1396.786600
-1396.860900
-1396.292300
-1396.269900
-1396.101700
-1396.418100
-1396.093600
-1396.653200
-1394.989500
-1396.329300
-1396.144700
-1395.989100
-1395.821100
-1395.706100
-1396.753200
-1395.947000
-1396.634000
-1396.549200
-1395.716400
-1396.454300
-1395.060300
-1396.155800
-1396.880100
-1396.480800
-1394.915500
-1396.568200
-1396.406900
-1396.526500
-1395.705700
-1395.103800
-1395.492400
-1395.565300
-1395.504000
-1396.305200
-1395.054300
-1396.033300
-1395.896000
-1395.770300
-1395.708900
-1395.366800
-1396.625400
-1396.877000
-1396.088200
-1395.747300
-1396.441600
-1396.116500
-1395.807600
-1395.717900
-1396.213400
-1396.153700
-1395.518500
-1396.290200
-1396.599900
-1396.191700
-1395.436900
-1396.186700
-1396.597300
-1396.211000
-1396.217600
-1395.224000
-1396.033600
-1395.673400
-1396.300700
-1395.980800
-1396.216700
-1394.959000
-1395.433600
-1396.006900
-1395.826000
-1395.072800
-1395.904300
-1395.892900
-1395.062200
-1396.420700
-1395.723900
-1397.041500
-1396.323600
-1396.986100
-1396.171900
-1396.325700
-1397.156500
-1396.176500
-1396.897800
-1395.989000
-1397.542800
-1396.095300
-1396.410900
-1396.558600
-1396.257900
-1396.577800
-1396.790000
-1396.530800
-1394.160800
-1393.815400
-1394.473200
-1393.431500
-1393.754600
-1395.452600
-1395.728800
-1394.747400
-1396.470100
-1395.729800
-1396.028400
-1395.976900
-1396.188700
-1396.552600
-1395.479300
-1395.705200
-1395.792800
-1394.906300
-1395.921400
-1397.079600
-1395.592600
-1395.471900
-1395.880300
-1396.205600
-1395.290200
-1395.417300
-1395.774200
-1396.089800
-1396.503400
-1397.067100
-1395.089300
-1396.363100
-1397.297600
-1396.227600
-1395.093000
-1397.462200
-1396.978300
-1396.892200
-1396.462900
-1395.942700
-1396.056300
-1396.121600
-1396.792600
-1396.008200
-1395.212000
-1394.257000
-1395.551000
-1395.128400
-1395.312000
-1395.664900
-1394.783400
-1395.066800
-1394.668100
-1396.243200
-1396.834600
-1395.913400
-1396.196000
-1396.248300
-1395.951400
-1396.390200
-1396.318400
-1396.687600
-1396.050700
-1395.558500
-1396.690200
-1396.170400
-1396.775800
-1396.076000
-1395.842900
-1396.619800
-1395.882900
-1396.338000
-1396.661700
-1395.230000
-1395.929800
-1394.765100
-1394.233500
-1395.974000
-1395.717900
-1396.085200
-1396.059000
-1395.698700
-1395.226500
-1396.715400
-1396.934300
-1397.621200
-1397.762100
-1397.434700
-1397.003700
-1397.656000
-1398.335300
-1396.862800
-1397.389900
-1397.541200
-1397.167600
-1397.314500
-1398.198300
-1397.692900
-1396.584100
-1397.661800
-1397.715400
-1397.385100
-1396.835400
-1397.038300
-1398.143400
-1396.191700
-1396.793900
-1396.315300
-1397.380600
-1397.516000
-1397.499200
-1396.390500
-1396.945600
-1396.254800
-1396.837400
-1397.284400
-1397.320000
-1397.089200
-1397.248200
-1396.919800
-1396.956800
-1396.659000
-1396.522100
-1396.493100
-1396.576200
-1397.065200
-1397.300400
-1396.948100
-1396.470800
-1397.550100
-1397.186200
-1397.708800
-1397.579600
-1397.445600
-1397.096100
-1396.818500
-1396.410100
-1395.888300
-1396.577900
-1397.253000
-1396.486200
-1397.105800
-1397.292500
-1397.903100
-1398.128400
-1397.464100
-1397.579900
-1396.683300
-1396.864600
-1397.502300
-1396.399800
-1397.174100
-1397.518900
-1397.062400
-1397.719600
-1397.197300
-1396.508900
-1397.185400
-1395.868300
-1397.487400
-1397.096500
-1396.170600
-1397.117400
-1396.484100
-1395.591900
-1395.842800
-1395.821900
-1397.135500
-1397.580100
-1396.193800
-1396.840800
-1397.185900
-1397.332900
-1397.400000
-1397.086500
-1396.216800
-1396.401900
-1396.343100
-1397.748900
-1396.570600
-1396.821000
-1397.146900
-1396.404900
-1396.951600
-1397.372500
-1396.965400
-1396.985100
-1396.225700
-1397.148100
-1395.915200
-1396.139600
-1395.692400
-1397.357700
-1396.839500
-1396.447600
-1396.251200
-1396.201300
-1396.789900
-1396.803700
-1395.598900
-1396.295000
-1396.715000
-1396.118500
-1397.208700
-1396.813900
-1397.118200
-1396.348000
-1396.043300
-1396.991600
-1396.536800
-1396.431100
-1397.015200
-1396.506300
-1396.766700
-1395.695200
-1396.235800
-1396.825200
-1395.953600
-1396.664500
-1395.941400
-1396.647500
-1396.203600
-1395.113100
-1395.361000
-1395.591500
-1395.946700
-1395.709700
-1396.020900
-1395.998400
-1395.430300
-1396.253400
-1396.139900
-1396.074600
-1397.134700
-1397.317200
-1397.154800
-1396.541600
-1396.455400
-1396.859300
-1396.820100
-1396.281600
-1396.839300
-1397.081200
-1396.948400
-1396.310100
-1397.341600
-1396.821200
-1398.103800
-1396.449500
-1397.094100
-1397.005000
-1396.149900
-1397.580300
-1397.735000
-1397.523400
-1396.770400
-1396.790600
-1397.756800
-1396.842700
-1397.884500
-1396.837700
-1396.632200
-1396.108700
-1398.524900
-1397.259200
-1397.649800
-1396.701400
-1397.771500
-1397.454600
-1397.693000
-1397.986800
-1397.428200
-1395.303700
-1396.591700
-1396.230900
-1396.560700
-1396.078500
-1396.686800
-1397.048700
-1396.261000
-1396.892500
-1396.874300
-1396.811600
-1396.836600
-1397.382800
-1396.974300
-1395.679000
-1395.341200
-1396.046700
-1396.546800
-1396.516700
-1396.964500
-1396.171600
-1395.477100
-1395.541900
-1396.587800
-1396.847800
-1397.348400
-1396.629200
-1395.557800
-1396.224500
-1395.599700
-1395.906500
-1395.408000
-1395.732900
-1396.874300
-1396.623300
-1397.112700
-1396.808900
-1397.085700
-1395.539000
-1396.310800
-1396.892500
-1395.217100
-1396.871700
-1396.258600
-1395.953100
-1396.425400
-1396.790400
-1396.359000
-1397.390900
-1395.403800
-1396.898300
-1396.745400
-1396.902300
-1397.318400
-1397.274400
-1397.130100
-1396.927400
-1397.741200
-1396.134300
-1396.104500
-1395.487300
-1397.140800
-1396.337200
-1396.917900
-1397.214000
-1396.497900
-1396.061800
-1396.972300
-1397.448800
-1397.249700
-1396.474900
-1396.451700
-1397.025200
-1397.931400
-1396.762600
-1398.090400
-1397.461500
-1397.288200
-1397.124300
-1397.172900
-1397.474100
-1396.473300
-1396.392600
-1396.001800
-1397.018500
-1397.545600
-1396.964000
-1395.928100
-1395.379200
-1395.327100
-1396.168000
-1395.590000
-1396.203400
-1397.091900
-1396.126600
-1396.279200
-1396.427100
-1396.981400
-1396.391800
-1396.239500
-1397.015200
-1396.059500
-1396.541600
-1395.821400
-1396.017000
-1396.542800
-1396.380600
-1395.316000
-1397.626900
-1397.335000
-1397.552800
-1396.531700
-1396.046900
-1397.019200
-1397.816200
-1397.637600
-1396.968000
-1397.570800
-1396.634500
-1397.288200
-1397.891100
-1397.092000
-1397.657900
-1397.108900
-1396.988700
-1397.506500
-1397.105700
-1397.411100
-1398.068900
-1398.151800
-1398.448000
-1397.988700
-1398.251100
-1397.078200
-1397.410700
-1397.482800
-1397.042700
-1396.679000
-1397.413300
-1397.366900
-1397.258400
-1397.160100
-1397.010100
-1396.851500
-1397.450300
-1396.377900
-1397.279100
-1397.784600
-1397.886100
-1397.308100
-1394.149000
-1394.838200
-1395.338200
-1395.763400
-1395.627400
-1394.641300
-1395.306700
-1395.961900
-1395.257100
-1395.467700
-1394.394100
-1395.095200
-1395.183100
-1395.537900
-1395.613400
-1395.871900
-1395.015900
-1394.562500
-1394.889400
-1395.676400
-1394.288800
-1394.841100
-1394.701700
-1394.773900
-1395.288800
-1394.615000
-1395.723600
-1396.097500
-1394.795700
-1394.772100
-1395.420600
-1395.428900
-1395.246900
-1395.452800
-1395.566500
-1394.459800
-1395.528000
-1395.430700
-1395.218800
-1395.391000
-1395.981000
-1395.342500
-1395.352500
-1395.463300
-1395.753700
-1395.421600
-1395.474600
-1395.557400
-1395.938300
-1394.917400
-1394.050900
-1395.131900
-1395.728800
-1395.542000
-1395.090700
-1394.708700
-1395.773000
-1395.524400
-1396.409900
-1395.438300
-1395.260500
-1395.488100
-1394.233400
-1394.335600
-1395.239700
-1396.326900
-1395.393200
-1395.821500
-1395.286300
-1394.580800
-1395.743600
-1394.582400
-1394.696300
-1396.878500
-1394.853800
-1396.085000
-1395.895000
-1396.160300
-1395.633800
-1395.514800
-1395.325400
-1396.367300
-1395.957100
-1396.262200
-1396.529100
-1394.793600
-1395.806200
-1395.704500
-1395.499800
-1395.485700
-1396.442500
-1396.114500
-1395.950900
-1396.563200
-1396.322300
-1396.841500
-1396.291700
-1396.074200
-1395.779900
-1396.656400
-1395.500400
-1395.903800
-1396.357800
-1396.682700
-1395.821800
-1395.550000
-1396.062400
-1396.864500
-1395.909100
-1395.485500
-1396.075700
-1395.899500
-1395.493900
-1396.074800
-1396.261700
-1396.047000
-1396.529200
-1397.722600
-1395.747100
-1395.894100
-1395.737800
-1395.862300
-1396.168800
-1396.780400
-1396.123000
-1397.353500
-1396.016600
-1396.637700
-1396.310400
-1396.603300
-1397.054300
-1396.091200
-1395.711200
-1396.634100
-1394.572900
-1395.819200
-1395.759700
-1395.960600
-1395.633000
-1396.920000
-1395.517100
-1396.445200
-1396.492100
-1395.655800
-1396.463600
-1395.477400
-1395.657400
-1395.218600
-1394.213700
-1394.849300
-1396.081800
-1395.865200
-1396.393200
-1395.934100
-1395.714000
-1396.062900
-1396.434300
-1396.616500
-1397.059800
-1396.256600
-1395.130500
-1395.411000
-1395.994100
-1395.846500
-1396.457400
-1395.373500
-1395.403600
-1396.568600
-1395.611000
-1395.624600
-1396.221100
-1396.203700
-1395.961200
-1396.469400
-1395.928600
-1396.008100
-1396.279700
-1396.253400
-1395.971600
-1395.736200
-1395.912900
-1395.957300
-1396.425600
-1396.699700
-1397.549700
-1396.790300
-1395.641500
-1395.749300
-1395.753000
-1396.559200
-1396.150200
-1396.408400
-1395.504900
-1396.470700
-1396.998900
-1395.739300
-1396.155400
-1394.881700
-1395.544100
-1395.093800
-1395.397800
-1394.964800
-1394.529700
-1394.263100
-1394.813300
-1395.727900
-1395.468000
-1395.480400
-1395.549800
-1396.580000
-1396.029800
-1395.334100
-1395.813400
-1396.706000
-1395.701400
-1397.220800
-1394.861000
-1396.174200
-1396.317500
-1395.363700
-1396.419100
-1395.972700
-1397.167800
-1395.368100
-1396.499000
-1395.528200
-1394.957600
-1394.846100
-1393.834100
-1394.751900
-1395.524100
-1395.056400
-1395.305400
-1395.166100
-1395.632500
