    1.676910     0.956850    10.224610     5.197550     1.000740    10.275270     6.748810     3.850130    10.229770     3.404900     4.051860    10.090970     1.677210     7.035190    10.141120     5.167520     6.775090    10.084860     6.776650     9.946530    10.154110     3.366930     9.708990     9.893200     1.667500    12.898180     9.965230     5.077270    13.242980    10.470970     1.686960    28.325480     1.134640     4.919450    28.195500     1.406110     6.770560     1.829060     1.519740     3.282380     1.799640     1.326280     1.810400     4.902450     1.313820     5.124000     4.996950     1.456500     6.765620     7.884660     1.385270     3.487180     7.952450     1.426950     1.797810    11.048890     1.153830     4.966770    10.860720     1.199220     1.636250     0.750950     4.641670     5.262850     0.880930     4.588440     6.707230     3.778440     4.316070     3.451630     3.798470     4.508660     1.737190     6.839990     4.430090     5.148630     6.878630     4.235480     0.114620     9.831760     4.222290     3.367700    10.023100     4.148700     1.711020    12.837630     4.015440     5.212490    13.253000     4.369780     1.741310    28.395990     7.356670     5.216830    28.030640     6.706470     0.115480     2.041250     7.392400     3.474260     1.785580     7.263750     1.639240     4.904350     7.129010     5.122310     4.992640     7.156780     6.734000     7.921730     7.077810     3.515960     8.009350     6.941000     1.805490    10.981450     6.870000     5.165740    11.097010     6.839530     6.533010    29.247530     0.181980     3.254670    29.428730    11.402210     1.851220     3.048230    11.395110     5.173540     2.828240     0.287190     6.790330     5.821700    11.534310     3.471530     6.002810    11.449360     1.647090     8.842360     0.157590     5.094940     8.970860    11.377190     6.747290    11.930320    11.426710     3.310440    11.706640    10.942840     0.157020     0.049480     6.281130     3.528980    29.431540     5.806250     1.593550     2.979130     5.712750     5.030600     2.759440     5.991250     3.577330     5.850110     5.729620     0.021540     5.944470     5.655410     1.570840     8.840560     5.877510     4.985520     9.129350     5.370250     0.192850    11.853250     5.440730     3.607200    12.078700     5.353240     5.037470    16.322110     3.853820     2.149860    16.064990     3.326590     0.430840    16.234840     5.374110     4.784430    17.881900     1.628320     6.818060    13.407490     1.460190     0.328770    18.602010     0.555870     3.306390    28.061740     4.231330     4.268700    20.213630     2.650940     1.464150    19.817990     2.582860     4.959800    20.159240     5.254170     0.671180    18.994520     4.965060     4.701440    21.767990     0.734800     0.299960    22.451640     1.701690     4.372690    25.654810     4.161050     6.591570    24.043080     3.936440     2.673850    25.453520     2.219380     4.759080    22.839010     5.835070     2.101840    24.515850     5.640220     1.078930    16.103330    10.344700     4.209280    16.116710     6.644190     3.481660    17.284300    10.681510     0.509860    13.626800     6.820860     5.607000    17.186200     8.973770     3.205380    13.700620     6.592620     2.777150    18.842650     6.562840     0.039960    19.539980     9.617850     2.645930    19.624470     9.187600     4.692960    21.250560     9.673080     2.601570    23.302770     0.547230     6.536670    28.045410     9.907070     3.548570    27.946300     9.768470     5.086260    23.690220     8.762480     0.348940    25.438250     8.960600     3.081630    25.303960    10.050660     4.913430    15.363220     3.757980     4.988020    17.349380     2.458270     5.951390    16.367890     4.174440     2.972170    16.394040     3.726160     0.490350    17.208320     5.482580     2.399430    15.166070     3.052510     5.639050    18.117370     1.239670     0.794540    17.798660     0.255490     4.779540    16.248790     5.883500     3.811240    17.376970     0.063500     0.867700    18.969910     1.367560     4.409490    19.342980     2.316140     4.581430    20.250290     3.608880     2.389820    20.139040     2.632520     4.610780    21.138780     1.538530     0.640300    21.635820     2.141350     1.217650    19.464540     3.470870     5.568860    22.190890     0.917380     5.020610    21.105280     5.579920     1.390630    19.200470     5.630740     4.147620    19.769630     5.711100     1.031520    22.753520     1.150930     5.360910    23.295790     5.253360     3.893300    25.452580     3.339330     5.317670    25.315720     4.031520     2.615790    24.604050     1.747310     3.404360    22.704420     0.651640     2.914590    24.012590     5.499930     2.321020    26.091980     1.578860     2.377100    25.437890     5.469080     0.481160    14.501140     6.371430     0.291320    16.303350     9.779490     4.869780    16.317380     7.351460     2.642720    16.764890    10.674830     4.904360    17.149360     9.634870     3.732770    14.563350     6.692310     2.552220    13.624820     7.328220     3.787000    27.138600     4.259520     6.062420    18.034780     9.088600     3.062580    17.911950     6.544150     2.914160    18.846490     9.766820     0.099470    19.358720    10.615170     4.683430    21.287750    10.683280     2.783670    19.104410     7.522240     6.143340    20.229050     9.447330     3.877100    20.737260     9.418830     1.669880    19.738670     9.347980     4.976000    22.777710     9.166150     4.422170    28.091280     9.403750     4.844990    23.244480     6.693300     4.333580    24.224020     9.087080     2.219860    25.231050     9.614380     0.687560    25.679420     8.083470     3.291910    26.226710    10.139460     1.160070    16.034530     4.755750     0.733420    13.140980     2.087740     5.995450    13.369950     1.998520     2.676120    27.974800     3.490400     6.674620    19.499510     5.264750     0.021830    23.452450     3.130070     0.560420    24.291190     4.399710     1.273620    15.158950    10.220400     6.821810    13.657580     7.632590     2.779370    23.943560    11.369040     0.185090    28.415930     9.153550     6.683880    27.075350     9.825760     2.909860    28.054180     8.934690     6.422990    24.801500     8.826950 
    1.662910     0.949310    10.127980     5.086060     1.026120    10.295980     6.762630     3.912350    10.205200     3.527010     3.928470    10.091950     1.663450     6.962140    10.276840     5.138410     7.022160    10.085550     0.074360     9.789900    10.260680     3.430640     9.740070     9.902910     1.494940    12.782710     9.919630     5.056360    13.057530    10.261120     1.661070    28.320520     1.106830     4.899930    28.277980     1.211880     6.769000     1.802270     1.450150     3.272170     2.042520     1.394900     1.744770     4.926710     1.353890     5.094860     4.950990     1.349460     6.758720     7.876030     1.415820     3.396840     7.880550     1.310550     1.874460    11.154940     1.151920     4.961570    10.948780     1.241530     1.563970     0.730570     4.594050     5.241590     0.911680     4.604720     6.815520     3.881680     4.492700     3.448820     3.775400     4.383200     1.705490     7.039950     4.226770     5.071420     6.842880     4.273560     0.117440     9.887830     4.072880     3.413250     9.905050     4.082840     1.774560    12.852960     3.980340     5.267740    13.274060     4.437090     1.743480    28.360720     7.367950     5.184520    28.026150     6.780640     0.007320     2.011530     7.454420     3.424090     1.845570     7.251340     1.737730     4.942220     7.033640     5.174000     4.974270     7.130000     6.688490     7.924090     6.981810     3.415650     7.917390     7.020160     1.738920    10.983870     6.954570     5.125200    10.922340     6.766790     6.522230    29.397800     0.221960     3.202820    29.429560    11.470280     1.859850     2.993690    11.322950     5.174370     2.801590     0.222800     0.034560     5.722940     0.056870     3.411910     6.028150    11.409540     1.533400     8.829420     0.215670     5.029550     8.918750    11.522590     6.721520    11.914370    11.465790     3.360520    11.733340    10.969320     0.104060     0.010160     6.300150     3.587840    29.348020     5.878760     1.656160     3.017360     5.739070     5.071740     2.821680     5.976790     3.547140     5.886420     5.712960     0.060280     5.945710     5.591830     1.674250     8.744350     5.799860     5.082890     9.114100     5.373300     0.330050    11.886040     5.374020     3.548800    12.118170     5.448940     5.226770    16.502070     3.935610     2.300130    16.078220     3.455480     0.536230    16.106520     5.534870     4.877420    17.895610     1.522690     6.675000    13.343980     1.508910     0.416840    18.512240     0.515530     3.386070    27.881930     4.538470     4.139930    20.153010     2.747920     1.571940    20.060900     2.367730     5.015410    20.229220     5.476680     0.578560    18.866790     4.918880     4.773360    21.849080     0.591210     0.400090    22.296500     1.545520     4.365630    25.705440     4.071300     6.641780    24.035070     3.922520     2.638610    25.510890     2.190910     4.790810    22.896200     5.820750     1.924400    24.666470     5.684400     0.946010    16.115530    10.109970     4.243940    16.189910     6.781010     3.383540    17.454010    10.694350     0.268930    13.637350     6.837760     5.472930    17.147500     8.878850     3.263190    13.640710     6.901050     2.953790    18.747470     6.634160     6.784230    19.750190     9.618550     2.525400    19.384040     9.132260     4.606450    21.235280     9.602460     2.537900    23.388490     0.521790     6.508370    27.779160    10.112080     3.670570    28.188060     9.783490     5.230180    23.810270     8.711310     0.585380    25.457330     9.060070     3.060820    25.056730    10.196950     5.176000    15.507970     3.986300     5.090070    17.239990     2.252980     6.097980    16.655440     4.312500     3.172830    16.390140     3.707210     0.389340    16.989520     5.951670     2.245940    15.111680     3.516620     5.768360    18.185730     1.133700     0.771420    17.693500     0.100210     4.632450    16.278560     5.874690     3.777980    17.550140     0.046180     1.031410    19.037060     1.060630     4.330870    19.247740     2.314720     4.608340    20.118060     3.611780     2.575670    20.175930     2.499550     4.576900    21.206280     1.352820     0.839690    21.456370     1.891120     1.283160    19.639150     3.187700     5.667580    22.189740     0.775480     4.970920    21.207100     5.645740     1.332020    18.946690     5.549360     4.268740    19.794620     5.975460     1.092200    22.748820     1.033380     5.297700    23.359990     5.158650     3.835620    25.611560     3.240560     5.283110    25.370810     3.937890     2.590540    24.653800     1.721680     3.347300    22.803710     0.556470     2.348260    23.868200     6.050740     2.247990    26.199540     1.664340     2.666180    25.142810     5.268230     0.223790    14.523390     6.410250     0.144170    16.315490     9.606140     4.675290    16.525170     7.592690     2.706890    16.740400    10.669230     4.673710    17.222180     9.425370     3.662510    14.597620     6.863150     2.408940    13.688870     7.330780     3.979510    27.052190     4.431010     5.903790    18.037940     9.008970     3.346490    17.848910     6.661000     2.720830    18.626240     9.771930     6.679810    19.514640    10.556050     4.567910    21.366890    10.582410     2.746290    18.985830     7.565750     5.985120    20.369070     9.457290     3.811570    20.686390     9.354750     1.571370    19.695810     9.259080     5.108340    22.886480     9.043530     4.634530    28.186310     9.561170     4.915790    23.342620     6.681140     4.406660    24.288500     8.948540     2.215930    25.278940     9.704220     0.889980    25.683970     8.166670     3.411880    25.843280    10.671060     1.193500    16.303850     4.819130     0.610530    13.117880     2.108690     5.926840    13.212910     2.130400     2.881840    28.140230     3.736780     6.574250    19.373200     5.181040     0.177920    23.511680     3.145380     0.649640    24.393430     4.399370     0.999960    15.117210    10.141030     6.534190    13.666060     7.643650     2.691280    23.984410    11.326310     0.234200    28.200400     9.372980     6.709870    26.825970     9.993370     3.154870    28.290270     8.973540     6.658740    24.831870     8.906320 
    1.642810     0.994390    10.089400     5.234350     1.041390    10.144670     6.797370     3.938460    10.076440     3.527690     3.931220    10.087670     1.541060     6.957120    10.130150     5.110090     6.926360    10.287380     6.767350     9.848890    10.177790     3.471670     9.772300     9.945140     1.573490    12.781970     9.904160     5.080540    13.002110    10.062970     1.565520    28.241140     1.031660     4.946230    28.349580     1.106960     6.815040     1.903890     1.484210     3.231850     1.943200     1.365470     1.754040     4.754220     1.317370     5.039430     4.861900     1.393700     6.691370     7.947610     1.533040     3.311290     7.845190     1.483410     1.712010    11.037010     1.236130     4.897720    10.972170     1.199450     1.632700     0.655560     4.708870     5.135550     0.906070     4.638970     0.136290     3.872140     4.358780     3.420830     3.840300     4.444040     1.716410     6.867730     4.221850     5.129310     6.819220     4.185520     0.142830     9.909310     4.158750     3.415370     9.951550     4.213340     1.873590    12.975520     4.093150     5.139620    13.256480     4.424710     1.750360    28.432710     7.406510     5.249040    27.981240     6.943220     0.051000     2.072360     7.283980     3.348350     1.880370     7.268130     1.711760     5.046050     7.179810     5.135750     5.051490     7.041460     0.056360     8.018620     6.954370     3.484100     7.932340     6.964620     1.711460    10.900060     6.835100     5.124500    10.981510     6.811580     6.561340    29.382440     0.181250     3.162870     0.077070     0.093600     1.836510     3.027020    11.293450     5.239000     2.825200     0.156120     0.014070     5.780900     0.106560     3.395120     5.972850    11.365300     1.573800     8.845340     0.216440     5.086700     8.972960     0.112220     6.786890    11.871470    11.314660     3.343070    11.755970    10.977820     0.081270     0.023780     6.272950     3.547070    29.318750     5.931560     1.765900     2.967910     5.769120     5.010060     2.839370     5.956420     3.395030     5.915520     5.698960     0.035660     6.013060     5.596130     1.735320     8.834950     5.613220     5.092940     9.005370     5.366040     0.287630    11.877290     5.399760     3.615100    12.096190     5.512790     5.232530    16.568090     4.033890     2.494980    16.009950     3.845680     0.768320    15.971220     5.875830     4.847810    17.842380     1.402680     6.620270    13.418250     1.322790     0.488730    18.340430     0.337040     3.335730    27.847990     4.489590     4.097970    20.059540     2.862860     1.415340    19.886580     2.418550     5.052750    20.223670     5.454360     0.543860    18.863240     4.896130     4.791400    21.785000     0.735950     0.325790    22.339950     1.586180     4.362980    25.628280     3.970030     6.567700    24.024410     4.084750     2.480180    25.414940     2.266040     4.853560    22.983670     5.975210     1.965220    24.670580     5.601660     1.025720    16.178810    10.059580     4.147280    16.031780     6.795770     3.396200    17.434990    10.714090     0.339230    13.540250     6.743730     5.447920    17.268410     8.936850     3.344030    13.502490     7.066060     3.035880    18.632260     6.455860     6.590890    19.479280     9.549960     2.550370    19.522730     9.020250     4.437030    21.449870     9.492020     2.691550    23.393430     0.546050     6.426510    27.989190    10.064570     3.427690    27.979620    10.088020     5.369460    23.882440     8.567250     0.680120    25.418900     8.969440     3.090600    25.137760     9.984960     5.600090    15.671420     4.084120     5.023580    17.116780     2.000070     5.942320    17.176710     4.362830     3.406420    16.370290     3.909630     0.687520    16.857030     6.211450     2.674270    15.080050     3.612820     5.775260    18.072740     0.999350     0.927830    17.506150     0.207240     4.665280    16.068320     5.979750     3.822220    17.427600     0.057210     0.971860    18.789920     1.064250     4.297280    19.161660     2.453930     4.455920    20.091530     3.771120     2.328060    20.081280     2.753520     4.596010    21.185420     1.509510     0.695920    21.450990     1.899720     0.985160    19.432990     3.213750     5.748400    22.080730     0.923990     4.932130    21.190620     5.627050     1.223640    18.887140     5.593470     4.276490    19.747300     5.835680     1.070610    22.774170     1.099960     5.394720    23.486920     5.250260     3.693670    25.370570     3.222370     5.231770    25.193300     3.858640     2.595320    24.579210     1.719510     3.549440    22.826960     0.695940     2.463110    24.023790     6.117380     2.441360    26.133900     1.565710     2.677550    25.210960     5.179430     0.512960    14.474850     6.420340     0.210990    16.581440     9.667050     4.792910    16.335610     7.513280     2.739910    16.730090    10.629000     4.806930    17.210360     9.670740     3.586470    14.443980     6.949440     2.701970    13.428200     7.833380     3.902080    26.975210     4.218860     5.847050    18.190280     9.030730     3.422350    17.716270     6.502050     2.838920    18.889410     9.751190     6.798130    19.233560    10.454740     4.526020    21.459850    10.490520     2.853090    18.903710     7.364200     5.962450    20.260150     9.478570     3.656290    20.854420     9.283460     1.622880    19.744400     9.280900     5.128870    22.985090     8.890480     4.384200    28.040860     9.840900     5.048530    23.421640     6.833090     4.566050    24.393640     8.838400     2.168080    25.208840     9.661560     0.814160    25.774010     8.079890     3.266490    26.057390    10.284500     1.331950    15.983840     5.063140     0.677590    13.472630     1.795970     5.975530    13.183460     1.997890     2.685290    27.965880     3.787090     6.668380    19.509030     5.177190     0.023740    23.555840     3.293310     0.597190    24.292870     4.619440     0.922090    15.238680     9.927470     6.563370    13.551950     7.514900     2.848920    24.009670    11.396460     6.705410    28.372330     9.224320     0.031200    27.102800    10.067290     2.954970    28.132730     9.279020     6.751250    24.806910     8.928470 
    1.745220     1.007920    10.082440     5.111370     1.057730    10.185880     6.729300     3.994230    10.169000     3.373790     4.061970    10.026730     1.695790     6.998470    10.275680     5.194050     6.865750    10.223140     6.634640     9.737050    10.164860     3.303590     9.625540    10.119150     1.726000    12.976560     9.964790     5.060760    12.967160    10.019010     1.581790    28.253610     1.070620     4.924230    28.305810     1.277070     6.812520     1.837830     1.427710     3.345610     2.028250     1.343480     1.749060     4.875960     1.355880     5.118750     4.954560     1.398190     6.808900     7.922850     1.463020     3.367790     7.867080     1.372050     1.592800    10.977080     1.081210     4.887580    11.187850     1.223250     1.652350     0.696830     4.634670     5.198620     0.847310     4.692360     6.781430     3.835570     4.385140     3.505850     3.876810     4.385230     1.805880     6.757450     4.192910     5.150280     6.878980     4.238110     0.059050     9.904760     4.050800     3.565100    10.046110     4.057050     1.694580    12.981020     4.149440     5.252360    13.263950     4.347500     1.713110    28.547210     7.520910     5.171150    28.101000     7.022980     0.074760     2.086150     7.342630     3.582840     1.938450     7.288260     1.677500     4.948480     7.093650     5.158290     5.045760     7.117950     0.083800     7.937300     6.906970     3.534310     8.071410     6.898340     1.837680    10.792420     6.851410     5.339890    10.944020     6.898090     6.598740    29.400020     0.069950     3.142730    29.516610     0.058510     1.783300     3.031270    11.233500     5.279200     2.811050     0.017920     6.667910     5.874570     0.135910     3.271800     5.909280    11.517700     1.647660     8.838370     0.120790     5.035050     8.925310     0.167280     6.752680    11.891560    11.154530     3.380890    11.655590    11.049490     0.101090     0.106880     6.222220     3.451720    29.189630     6.031520     1.603750     3.074220     5.801870     4.981570     2.875680     5.927200     3.397350     5.956050     5.753630     6.742750     5.966830     5.680910     1.725580     8.944220     5.455020     5.117410     8.978310     5.428350     0.116600    11.971080     5.400400     3.700400    12.025380     5.563090     5.460860    16.834610     4.167720     2.693910    16.011340     4.350260     0.959600    15.820770     6.287650     4.813930    17.750240     1.435840     0.016030    13.464060     1.123800     0.300760    18.351950     0.328370     3.452510    27.888490     4.468590     4.024990    19.974940     2.767720     1.213830    19.547810     2.454800     5.035560    20.316010     5.328370     0.380510    18.722950     4.884300     4.621990    21.522300     0.850120     0.461130    22.442520     1.896310     4.322020    25.601280     4.019590     6.567450    24.038000     4.172570     2.310240    25.190970     2.325490     4.803270    22.783800     6.104570     2.212540    24.606210     5.501760     1.088810    16.253190     9.990370     4.223550    15.823400     6.890290     3.465730    17.515720    10.503700     0.429350    13.512770     7.021700     5.464010    16.888990     8.839620     3.404260    13.432310     7.040790     2.853730    18.586650     6.339030     6.462460    19.521730     9.477480     2.560550    19.648780     8.874960     4.701900    21.542920     9.649680     2.814920    23.502100     0.385630     6.439740    28.021150     9.796830     3.454470    27.973860    10.055950     5.243520    23.922200     8.569910     0.615560    25.594550     8.703790     3.232220    25.067720     9.758750     6.072190    16.070240     4.015810     4.991900    17.097280     2.152940     5.997980    17.443460     4.728020     3.572070    16.383670     4.316900     0.906850    16.638900     6.780620     2.655940    15.183080     3.855150     5.726870    18.037730     1.037950     0.761540    17.509190     0.094120     4.762550    15.922750     6.070430     3.713880    17.469280    11.444900     0.730150    18.818430     1.028500     4.199880    19.086480     2.421700     4.427370    20.078300     3.644020     2.196030    19.586240     2.681210     4.254880    20.989830     1.609400     0.844280    21.585690     2.155450     0.731750    19.179500     3.248760     5.479630    21.890370     1.201630     4.939220    21.197060     5.686290     1.089800    18.668100     5.573750     4.342230    19.802480     5.719360     1.131980    22.890850     1.341490     5.506640    23.255090     5.502580     3.651670    25.300860     3.328680     5.151970    25.116020     3.932410     2.475770    24.534840     1.620480     3.477440    22.789320     0.492640     2.669090    23.806490     5.808690     1.730790    25.859760     2.000100     2.963040    25.189340     5.247790     0.636540    14.462860     6.756930     0.222150    16.513740     9.640210     4.820520    16.127610     7.658500     2.665190    16.985500    10.285550     4.702230    16.962840     9.465210     3.672470    14.436980     6.956480     2.774580    13.313490     7.744600     3.962340    27.105630     4.304560     5.773370    17.827820     8.764960     3.299020    17.734260     6.369780     2.919070    18.964860     9.478810     6.534490    19.330250    10.414180     4.712130    21.556210    10.699650     2.756060    18.847880     7.294810     5.853590    20.322480     9.428610     3.883350    21.036420     9.360900     1.623870    19.764670     9.102750     5.214610    23.045350     8.985940     4.382800    27.891290     9.851370     5.059470    23.108800     7.029070     4.539360    24.423150     8.976150     2.364640    24.972810     9.318140     0.755220    25.800180     7.764460     3.395740    25.980910     9.982530     1.755190    15.944170     5.658760     0.515180    13.186740     1.882220     5.902980    13.399580     1.425190     2.915910    28.109330     3.686170     6.570900    19.410860     5.172730     0.074160    23.460390     3.373920     0.606200    24.171580     4.692730     1.120780    15.247220     9.936200     0.059350    13.481850     7.899000     3.128190    24.025680    11.205700     6.730210    28.477380     8.962810     6.815300    27.100820     9.692400     3.019030    28.149650     9.235710     6.709820    24.924130     8.682210 