-1320.734600
-1320.118900
-1319.978600
-1319.009600
-1318.878000
-1318.118200
-1317.958800
-1317.422200
-1316.975400
-1316.440500
-1316.561400
-1316.145800
-1316.418900
-1317.296100
-1317.383700
-1317.505100
-1318.316800
-1317.569100
-1317.071300
-1316.331800
-1316.027800
-1316.417700
-1316.653300
-1316.590800
-1316.712300
-1316.466400
-1315.686800
-1315.380200
-1315.176400
-1315.456000
-1315.245000
-1314.198600
-1314.718400
-1315.540500
-1315.193900
-1315.263600
-1315.550600
-1316.127600
-1315.628600
-1315.453500
-1313.563800
-1314.742800
-1314.076600
-1314.550500
-1314.931800
-1315.040300
-1315.257800
-1315.654100
-1314.702800
-1314.977500
-1314.709200
-1315.713600
-1314.531100
-1314.633300
-1313.624300
-1313.208400
-1313.043100
-1313.677500
-1314.204200
-1314.532900
-1315.135100
-1315.283200
-1314.215100
-1314.617500
-1313.971100
-1314.361500
-1314.603600
-1314.516400
-1314.832700
-1315.513300
-1315.224300
-1314.431900
-1312.611900
-1312.905600
-1313.499800
-1313.036100
-1314.238500
-1314.566900
-1314.759600
-1313.802200
-1314.988900
-1315.105200
-1314.480400
-1314.565300
-1314.693500
-1314.134300
-1312.330600
-1313.315500
-1312.277600
-1312.650900
-1311.778600
-1313.395000
-1312.318600
-1313.789600
-1312.860300
-1312.545800
-1312.725700
-1312.454300
-1312.770200
-1311.839600
-1319.000200
-1317.884000
-1316.907700
-1316.833900
-1316.758500
-1317.156200
-1317.026300
-1316.806500
-1317.151300
-1316.776600
-1316.952500
-1317.185700
-1317.698500
-1316.925200
-1316.754600
-1316.857600
-1316.316200
-1316.873300
-1316.313600
-1316.336500
-1317.474400
-1317.157300
-1317.014100
-1316.992400
-1316.534800
-1316.656700
-1316.805200
-1316.878300
-1317.674300
-1317.366700
-1317.503800
-1317.185800
-1317.527900
-1317.791600
-1318.087400
-1316.798300
-1316.626800
-1316.066000
-1316.010900
-1315.885600
-1316.894700
-1316.271500
-1317.066400
-1316.884800
-1316.772200
-1316.859300
-1316.879200
-1316.663700
-1315.950200
-1317.452400
-1317.214000
-1316.455400
-1317.039600
-1316.791700
-1317.059500
