   -0.192718     0.169520    -0.600915    -0.048154     0.343158    -0.001320    -0.260218     0.284478     0.142682     0.063021    -0.497552    -0.019318     0.185428    -0.107268     0.677097     0.204895     0.645150    -0.147914     0.439710    -0.138296    -0.237595     0.047332     0.047496    -0.084926    -0.286377     0.049952    -0.014215    -0.224744    -0.424735     0.278400     0.134649    -0.075124    -0.260424     1.134315     0.719291    -1.319719    -0.207566    -0.158172    -0.374817    -0.151316     0.454790     0.014049    -0.165353    -0.074935    -0.019567     0.094826    -0.007032    -0.348027     0.187727     0.466754    -0.510708    -0.621038    -0.036715    -0.881040     0.335361     0.089491    -0.136710     0.228746     0.068218    -0.362624    -0.465689     0.133112    -0.409123    -0.239455     0.422221     0.148985     1.164198     0.438712     0.887579     0.233309    -0.056766    -0.257615    -0.386404     0.612444    -0.178849    -0.548103    -0.011044     0.274321     0.194617     0.208665    -0.120618     0.270153    -0.271788    -0.254834    -0.344392    -0.004930    -0.015274     0.067038     0.067201    -0.260888     0.202791    -0.177045     0.053867    -0.225171     0.332124    -0.335730    -0.091055     0.121475     0.091329    -0.167543     0.093388     0.087054    -0.006429    -0.230945    -0.454223    -0.148926    -0.424924     0.407526     0.306826     0.059917     0.013738     0.307178    -0.095111    -0.081624    -0.502011     0.024929     0.267991    -0.449539    -0.602008    -0.138662    -0.833664    -0.463220     1.137051    -0.226335    -0.058782     0.565777     0.315523     0.057093     0.226605     0.604665    -0.704172     0.003598    -0.042227    -0.301339     0.313277    -0.748593     0.035136     0.345311     0.067472    -0.972856    -0.050421    -0.004686     0.069066     0.586190    -0.443198     0.017398    -0.454435     0.388897     0.460350     0.392156    -0.427918    -0.441018    -0.105429     0.625325    -0.753833    -0.123383    -0.652600     0.885639    -0.141607    -0.026693     0.179670    -0.290247     0.227235     0.261920     0.042248     0.373460    -0.309224    -0.223996     0.003302    -0.687932    -0.125907    -0.182875    -0.137422     0.568824     0.906954     0.258570    -0.139629    -0.130145     0.428220     0.099302    -0.619090     0.353528    -0.264452     0.494870    -0.123537     0.191545    -0.271945    -0.066912     0.432059    -0.510377    -0.706572     1.026855     0.275585    -0.462185     0.372969     0.896071     0.007814     0.870958     0.265398    -1.510688     0.346895    -0.542554     2.105341     1.786912     0.051429     0.373662    -0.304747    -0.692893     0.179990     0.680033    -0.533154     0.729264     1.101982     0.219504    -0.338505     0.289815    -0.433140    -0.749166     1.058662     1.356078     0.045599     0.412916    -0.962290    -1.304648    -1.644317    -0.303291     0.043161    -0.098522    -0.827506    -1.027431    -0.221901    -0.329421     0.728030    -0.032286    -0.365197     0.212449    -0.261959     0.698596     0.088299     0.921186     0.042388     0.305067     0.510548    -0.004983     0.127420    -0.658422     0.528969    -0.909602    -0.758543     0.279119     0.232776     0.907919     0.369439     0.066472     0.141451    -0.488762     0.376407     0.528690     0.282060    -1.051236     0.416399     0.005353    -0.461689     0.630558     0.000306     0.077690    -0.106281    -0.407678    -0.570491     0.870448    -1.667660     0.522485    -0.535109    -0.095359    -0.043580    -0.108982     0.197935     0.371389     0.033630    -0.124585    -1.819587     0.012051    -0.014688    -0.351803    -0.086861    -0.387763     0.169977    -0.957046     0.718570     0.092536     0.523048     0.013398     0.224838    -0.200325     0.033839     0.105415    -0.013673    -0.349995    -0.027655     0.056624     0.793560     0.116854    -0.397945    -0.197532     0.043907     0.087872    -0.041647    -0.081756    -1.202214    -0.189244    -0.079994    -0.325030    -0.542764    -0.092543    -0.993732     0.405904    -2.155005    -0.772564    -0.198944    -0.048738    -0.575659     0.039378    -0.337145    -0.053297    -0.213477     0.367080    -0.504185    -0.240435     0.192052    -0.373285    -0.108524     0.039714     0.177020     0.069997     0.051546    -0.037830    -0.294508    -0.280349    -0.182754    -0.328187    -0.439859    -0.426789     0.973841     0.314109    -0.378269     0.899501     0.450401    -0.514928     0.832928     0.608955    -0.897647    -0.360929    -0.027206    -0.520700    -1.197846     0.384394     0.156546     0.074499    -0.456302    -0.152059    -0.182112     0.401641    -0.202460     0.261021    -0.144500    -0.032489     0.129351     0.258008     0.230408    -0.031430    -0.581579     0.063928    -0.166289     0.019701     0.138108     0.277254     0.063836     0.310145    -0.615081     0.208205     0.550646     0.179797     0.166316    -0.157071    -0.686492    -0.052185     0.432164    -0.441913    -0.334245    -0.226214     0.323995    -0.000260    -0.579955     0.235641     0.583711     0.026480     0.234858     0.660144     0.061816     0.039069    -0.017264     0.053107    -0.166080     0.650728    -0.535068    -0.256966     0.299720    -0.915764    -0.011120     0.173630    -0.598320    -0.103850     0.058930     0.035503     0.543111    -0.571911     0.572908     0.242274     0.246881     0.120308     0.013213     0.015451    -0.136803    -0.015771     0.416345    -0.321742     1.044233     0.001520    -0.351527     0.152413     0.322990     1.174009     0.070464    -0.004633     0.081316    -0.368480     0.156263    -0.028432    -0.231997    -0.071039     0.014966     0.191028     1.110368     0.062606     0.192631    -0.129778    -0.539839    -0.663559     0.333750    -0.163594     0.379888     0.118130    -0.079347     0.015588     0.511154     0.072609     0.562250    -0.611910    -0.541007    -0.336045     1.224717     1.252263     1.351483     0.119527     0.566822    -0.074314    -0.187104     0.135749    -0.324183     0.043267     0.480317     0.090345    -0.238729     0.165710     0.370131     0.426541    -0.581621     0.093092    -0.307013    -0.042149     0.780635    -0.000704     1.224445     0.065957    -0.204418     0.081165 
   -0.128921     0.209876     0.019924     0.923563     0.085017    -0.473147    -0.096800     0.012190    -0.158452    -0.583796     0.045751     0.195809    -0.585533     0.109641    -0.688519    -0.299782    -0.836945     0.405100    -0.363212     0.618628    -0.396245     0.182958     0.340454     0.217707     0.551705     0.055901     0.437381     0.305064     0.513264     0.148225    -0.127486    -0.240465     0.115002     0.224095    -0.105158     0.286800     0.220462     0.056893     0.517921    -0.351929    -0.764501    -0.188375     0.072127    -0.317182    -0.166231    -0.145378     0.078381     0.335523    -0.234482     0.145937     0.463069     0.479108    -0.118913     0.782670    -0.477203    -0.472061     0.209549    -0.215392    -0.525690    -0.354988     0.090786    -0.193914     0.450711    -0.222180     0.187329     0.073520    -0.039396    -0.189506    -1.038084     0.093250     0.133474     0.529255    -0.241345    -0.749962     0.508055     0.009242    -0.092847    -0.343247    -0.017193     0.238671     0.918457     0.128906     0.458172     0.701336     0.295667     0.280008     0.011481    -0.783519    -0.112002     0.158014    -0.182844     0.180654    -0.065555     0.234279    -0.181001     0.242120     0.400405    -0.044226    -0.577001     0.203184     0.083805    -0.422028    -0.488287    -0.063938     0.390606    -0.430093     0.237811    -0.114647     0.845176     0.044997    -0.194965     0.539480     0.077353    -0.170550    -0.068326     0.037567    -0.492895     0.044165     0.359475     0.217325    -0.063762    -0.534943    -0.110780    -0.038483     0.696369     0.170734     0.420535     0.224233    -0.087028    -0.078868     0.264708    -0.103539    -0.229059    -0.055111     0.042785     0.917887    -0.033016    -0.282759     0.214270     0.421548    -0.285438     0.073165     0.594458    -0.397928     0.174827    -0.273063    -0.705531    -0.353555    -0.323124    -0.593375     0.444626     0.350244    -0.125895    -0.382363     0.575497     0.147513     0.480606    -0.200037     0.239746    -0.853788    -0.495106     0.111324     0.238344    -0.158562     0.115833     0.245274     0.510178     0.162760    -0.455496     0.411393    -0.087531    -0.370631     0.063301    -0.352322    -0.655322    -0.566923     0.502869     0.623370    -0.390358    -0.216751    -1.146840    -0.947764    -0.237273    -0.774569     0.379820     0.006927    -0.127703     0.823798     0.376342     0.515397    -0.328221     0.270441     0.402117    -0.204327     0.546574    -0.797207    -0.658367    -0.963766    -0.747337     0.896735    -0.517891     0.453262    -1.031838    -0.716689     1.025370     0.042083    -0.426542    -0.272320    -0.230525     0.009670    -0.380219     0.098620    -0.076615    -1.151209    -1.133137     0.755722    -0.312197    -0.544455     0.655082     0.600034    -0.029693     0.443433     1.681258     0.229674    -0.082666     0.476968    -0.750354     0.904613    -0.828927    -0.436985     1.049787     0.323347    -0.122112     0.145786     0.565779    -1.123114     0.401773    -1.420961    -1.046183    -1.200167    -0.164700    -0.396259    -0.009443    -0.063498     0.141446     0.282280     0.583019     0.898716     0.006414     1.324435     1.067044    -0.804047     0.132565    -0.232058    -0.757894    -1.348168     0.404259    -0.384738    -0.384471     0.092474     0.417191    -0.478149    -0.310233    -0.447953     0.449749    -1.100214     1.012741     0.590571     1.449514    -1.135156     0.714971    -0.441170     1.212484    -0.255529    -0.025929    -0.187982     0.064018    -0.072965    -0.258492    -0.076403     0.657554    -0.445722     0.090275     0.436992    -0.223188    -0.257918     0.680441    -0.647167     0.756161     0.250631     0.385716     0.407583    -0.170312     0.045560     0.235317    -0.645444    -0.332825     0.386634    -0.147214     0.046841    -0.460539    -0.379560     0.397992     0.120812     0.633428     0.451294     0.356546     0.343324     1.156592     0.006965    -0.204249    -0.003578     0.517327    -0.062202     0.479265     0.090947     0.710573     0.306651    -0.328665     0.321757     0.258054    -0.809542    -0.040950     0.100519     0.368691     0.842933    -0.704896    -0.460579     0.646889    -0.241651    -0.423533    -0.252903     0.588360     0.744890     0.009814     0.441022    -0.017381    -0.172806     0.061574    -0.492871     0.300332    -0.066521     0.404176     0.212945    -0.389420     0.461077     0.147270    -0.177543     0.789398     0.558258    -0.711716    -0.103505    -0.127552    -0.296658    -0.361674    -0.096043    -0.044787    -0.095972    -0.087698    -0.374898    -0.382489     0.378195     0.099540    -0.157840     0.257778    -0.333086    -0.413077     0.687984    -0.530737    -0.016165    -0.085069     0.028457     0.076914     0.067875    -0.151381    -0.371676     0.145736    -0.103318     1.243934     0.427251    -0.424090     0.198948     0.359081     0.064680    -0.371335    -0.164720     0.755684    -0.439681    -1.019541     0.000550    -0.791039    -0.098727     0.439446     0.000080    -0.401769    -0.474895    -0.135000    -0.440160    -0.349858    -0.250432     0.162376    -0.002078    -0.212202     0.888746    -0.462187     0.469880    -0.206006     0.275366     0.082716     0.113482     0.193041    -0.019528     0.053923     0.506064     0.747376    -0.486536     0.061679     0.383746     0.202883     0.137942     0.748239    -0.534435     0.094665    -0.137228     0.275272    -0.132762    -0.443169    -0.200055     0.085594     0.215400    -0.150802    -0.216606     0.329066    -0.183310     0.236905     0.549491     0.021094     0.738368    -0.055943     0.292802    -0.115089    -0.525776    -0.337612    -0.644132     0.160120    -0.335851     0.055228    -0.072641     0.299220    -0.307377    -0.223637     0.185189    -0.181395     0.361412    -0.515102     0.235527     0.942462    -0.150990     0.219603    -0.639312     0.469336     0.686490    -1.290789    -0.744653    -0.509952    -0.014548     0.956411     0.050166     0.277860    -0.278742    -0.329253     0.124317     0.606568    -0.906524    -0.692189    -0.582207     0.809810     0.199490    -0.165237     0.029539    -0.563697     0.143621    -0.833045    -0.101234    -0.302416     0.219289 
    0.519043     0.000246     0.448664    -0.519899     0.226928     0.611403    -0.393568     0.303707     1.025188    -0.309130     0.209239     0.004407     0.435510     0.140727     0.995998     0.230725     0.056983    -0.534059     0.137963    -0.230766     0.136001    -0.392853     0.019349     0.299239     0.042757     0.296858     0.202418    -0.370741    -0.190251     0.791120     0.484814     0.043723     0.255786    -0.803987    -0.676473     1.124706    -0.423725    -0.379970    -0.272323     0.284503     0.250578     0.258992    -0.390790     0.822829     0.163335     0.147157     0.617006    -0.247687     0.622126     0.073654    -0.745377     0.107308     0.185390    -1.156975     0.064206    -0.141041    -0.463943    -0.043480     0.200106     0.079429    -0.058967     0.223592    -0.650871     0.265904     0.155463    -0.189381    -0.260251     0.030554     0.570382     0.506987    -0.031495    -0.418584     0.247916     0.396650    -0.092806    -0.183766     0.324507     0.471824    -0.309295    -0.054887    -0.369178     0.424088     0.319225    -0.436266    -1.034195    -0.388271    -0.001701     0.302965     0.353720    -0.339302    -0.190837     0.185085    -0.019735    -0.507843     0.516905    -0.682169    -0.075652     0.006844     0.330998     0.915431    -0.048119    -0.201840    -0.018179    -0.690901    -0.756767     0.045772    -0.306898    -0.072720    -0.184569    -0.450717     0.077057     0.303012     0.245064    -0.261911     0.197623    -0.012939     0.675614     0.586342    -0.826806     0.272986     0.666066     0.895950    -0.435616    -0.363044    -0.662167    -1.113224    -0.200159    -0.197311    -0.467193     0.435351    -0.351239    -0.321578     0.263521    -0.667967    -0.114436    -0.414886     0.157607     0.297780     0.036572    -0.265835    -0.048587    -0.605714    -0.116379     0.019766    -0.019305     0.027517    -0.455734     0.614355    -0.402644    -0.317752     0.006025    -0.210168     0.404089     0.346257    -0.641191     0.347969    -1.120807     0.803990     0.125679    -0.256394    -0.036064     0.202011     0.260505    -0.033314     0.436166     0.049502    -0.560066     0.185120    -0.328625    -0.476705     0.238837    -0.309860     0.152395     0.344897     0.179568     0.749948    -0.280284    -0.175126     0.057047     0.004387     0.561875     0.779243     0.247819     0.742929     0.047859    -0.378049    -0.343211    -0.984443    -0.374887     1.285281     0.833443    -1.066758     1.646399     0.285402    -0.134956    -0.537231     0.726308     0.511351     0.528672    -0.723952    -0.225029    -0.204928    -0.760634    -0.877969    -0.543996    -0.564666     0.993044    -0.266493     0.224694    -0.304319    -0.573663     0.241956     0.140080     0.295065    -0.410603     0.487693     0.853803    -0.692094     0.305557    -1.159676    -0.018963    -0.531916     1.193450     0.930989     1.455199     0.074247     0.188747    -1.334482     0.701210     0.835713    -1.251227     0.451675     0.614729    -0.273819    -0.295204     0.877483     0.058836     0.847692     0.457038     0.865786     0.382285     0.342949     0.144328    -0.224227     0.165988     0.392588     0.658339     0.001336    -0.217079    -0.843451    -0.607536     0.624189     0.195955    -0.680220    -0.858211    -0.431350     1.351383    -1.301149    -0.144094    -0.379807     1.324355     0.091948    -0.626691     0.880957     0.605094    -1.956291     2.035802     0.159284    -0.680475     0.130153     1.689709    -0.020133     1.176705    -0.939137     0.165547     0.262476     0.470032     0.825611     0.321630     0.444452     0.489331     0.541424     0.117134    -0.302812     0.043591     0.074806    -0.557088     0.708152    -0.453793    -0.444852    -0.276264    -0.453084     0.200674     0.177993     0.089731     0.616123     0.198970    -0.436171    -0.110204     0.154915    -1.306555    -0.382355     0.522249     0.305436    -0.978664    -0.557061     0.063075    -0.110383    -0.402417    -0.073218     0.075280    -0.011863     0.131255     0.504342     0.223907     0.003030     0.905155     0.406222     0.274141     0.015254     0.346603     0.012413    -0.181039    -0.437319    -0.058045     0.272685    -0.469467    -0.319413     0.924847    -0.266480     0.528932     0.611497    -0.657470    -0.565895    -0.044164    -0.006877     0.145013     0.068364     0.229255     0.455458    -0.046391    -0.273977     0.198203    -0.045954     0.123648    -0.106582    -0.214220     0.169430    -0.844902    -1.113870     1.374154     0.795548     0.505699     0.536379     0.153303     0.009208     0.072252    -0.221053     0.294387     0.209386    -1.089077     0.759088    -0.457315     0.068533    -0.202962    -0.095130    -0.016680    -0.716257     1.180157    -0.511002    -0.482417     0.247084    -0.161422    -0.059414     0.178396     0.215552    -0.165055     0.052369    -0.818546    -0.088418    -0.376698    -0.371951    -0.132182    -0.178996    -0.449570    -0.069408    -0.032200     0.239894     0.608282    -0.021040     0.717052    -0.146467    -0.981165    -0.010823     0.522693     0.612089    -0.209272    -0.485701    -0.158035    -0.429325     0.545419     0.165332    -0.135980     0.344081    -0.892247    -0.044242    -0.029930     1.022231    -0.267638     0.131977    -0.698477    -0.065926     0.143389     0.850123     0.439772    -0.740105     0.371470     0.590464     0.389666     0.112895     0.281712    -0.168153    -0.524023     0.085665    -0.139829    -0.012583    -0.382979    -0.195434     0.135099     0.118367    -0.190902    -0.244625     0.422958    -0.002526    -0.007051    -0.332771    -0.265599    -0.385036    -0.021380     0.029966    -0.126518     0.157084    -0.362947    -0.185273     0.392155     0.248546     0.173000    -1.040567    -0.093235    -0.229812    -0.420260    -0.089002     0.608909    -0.197385     0.227382    -0.167945    -0.082323    -0.328554    -0.056870     0.220502    -0.333827    -0.465361    -1.314023    -0.530153    -1.024752     0.027624    -0.867511     0.039658     0.171532    -0.016085    -0.241792     0.482279     1.109535    -1.757625     0.145150     0.270359    -0.575030    -0.116543     0.050225    -0.001529    -1.030520     0.320197    -1.474440    -0.601817    -0.548295    -0.219523 
   -0.190476    -0.105913     0.005696     0.197250    -0.428942    -0.389456    -0.083370     0.156372    -0.258358     0.187138    -0.189433     0.012545    -0.184598    -0.352299    -1.113754    -0.340933     0.761004    -0.110138     0.322959     0.652356    -0.153947     0.593318     0.443147    -0.937416    -0.435731    -0.346025     0.646559    -0.229438     0.013639     0.355127    -0.051942    -0.012831     0.006978     0.902269     0.778833    -1.009220    -0.360842    -0.025923    -0.693212    -0.623445    -0.423698    -0.670133     0.115130    -0.397702    -0.053461    -0.387692    -0.566676     0.696044    -0.774172     0.256840     0.165857    -0.280507     0.086422     0.777288     0.683671     0.145389     0.281196     0.310565    -0.690507    -0.212667    -0.114766     0.069925     0.119211    -0.299503    -0.027334     0.098298     0.850965     0.121704     0.194440    -0.314950    -0.301014     0.643844    -0.055302     0.519420     0.631627    -0.049215    -0.119518    -0.032691     0.568277     0.443230     0.395559     0.067300    -0.000178     0.699161     0.278756    -0.292393     0.184495    -0.928971    -0.159278     0.550865     0.054670    -0.093083    -0.311196     0.050023    -0.185452    -0.690456     0.223755    -0.099602     0.162919    -1.257594    -0.823632     0.501975     0.343952     0.311140     0.331452    -0.028447    -0.288733     0.232545     0.310924     0.333729    -0.072724    -0.173632    -0.643556     0.164877    -0.567473     0.483505    -0.400366    -1.110170    -0.281089    -0.157113    -0.997304    -0.695240     0.802773     0.430155     0.236772     0.688749     0.614924    -0.192351     0.950076    -0.120583     0.029701     1.132368     0.174915    -0.114339    -0.119815     0.109244    -0.000730    -0.069099    -0.314632     0.242362     0.267344     0.957161    -0.277090    -0.146663     0.250653    -0.091107    -1.057538    -0.355732     0.486660    -0.396894     0.067426     0.347527    -0.226396     0.626707     1.025108     0.108474     0.094943    -0.173836    -1.040485     0.113151     0.217125    -0.859447    -0.098888     0.400024    -0.397643     0.059007     0.095515    -0.496451    -0.230830    -0.143273    -0.118032    -0.242402     0.208411     0.079498     1.494775     0.268419     0.004926     0.387494     0.011250    -0.233103     0.329540    -0.992992     0.171383    -0.898520     0.344675     0.175663     0.802303     0.559763    -0.951707     0.676872    -0.075889     0.010687    -1.563657     0.454770    -0.796543    -1.026757    -1.622262    -1.955210    -1.886046     2.222820     0.274008    -1.058411     0.257201    -0.016634     0.808930     0.135861     0.419935     1.004199    -1.361649    -1.300778     0.212624    -0.168195     0.817502     1.032488     0.871195    -0.089726    -0.048096     0.087108    -0.068140    -1.057778    -0.032636    -0.427700     1.875248    -1.512821    -0.620946     0.691157    -0.923277     0.925185     1.922702     1.313027    -0.044311     0.057107    -0.099590     0.442897     0.516465    -1.190540     0.243540     0.645510     0.520515    -0.442894    -0.068832     0.125304    -0.698031     0.024377    -0.620950    -1.222310     0.527826     0.677276     0.072917     0.867093     0.629464    -1.394582    -0.245018     0.410554     0.529731    -0.361481     0.722726    -1.008822     0.499580    -0.046660    -0.143285    -0.659957    -0.712995     1.680715    -0.489965    -1.176168     1.040323     0.373714    -0.193180     0.239695     0.124553    -0.464076     1.838218     1.802283    -0.501395    -0.894259    -0.072276    -0.378748    -0.047689     0.083949    -1.138593    -0.010561    -0.665176     0.565056     0.285012     0.032963     0.650175    -0.503170     0.245548     0.113469    -0.525675     0.933339     0.053000    -0.242871    -0.075073     0.211851     0.450244     0.092309    -0.336190     0.053000    -1.055516    -0.656758     0.455663    -0.312710     0.725855     0.125831    -0.311433    -0.273819     0.482663     0.073891    -0.105096     0.204749     1.330671     0.862732     1.796676     0.624234    -0.629274    -0.399286     0.246544     0.176259     0.601279    -1.316050     0.054249    -0.087878     0.213126    -0.270828    -0.030165    -0.002676    -0.181393    -0.024097     0.874374     0.266946    -0.303282    -0.611205    -0.249289    -0.343481    -0.005873     1.998735     0.606863    -0.011518     0.080326    -0.738785    -1.098000    -0.906157     0.609372    -0.118736    -0.157990     0.077908    -1.473472    -0.872653     0.742053     0.525776     0.451434     0.373401     0.572921    -0.259246     0.053967     0.130451     0.059253    -0.325107     0.068348    -0.142809     0.377776     0.088688     0.110516    -0.040876    -0.647239     0.980331    -0.464141    -0.311470    -0.349836    -0.173462    -0.064823    -0.144121     0.113738    -0.404140    -0.094999    -0.197907    -0.416827    -0.066903    -0.542473    -0.095159    -0.052490     0.416285    -0.056393     0.079818     0.348783     0.081607    -0.712589     0.177835    -0.832944    -0.255250     0.844755     1.468501    -2.240233    -0.440765    -0.148983    -0.217068     0.112577     0.158748    -0.650012     0.032520    -0.122219    -0.008905     0.243352     0.268717    -0.462979     0.779898    -0.362622    -0.324405    -1.906471    -0.002544     0.253947    -0.335555     0.415537    -0.572129    -0.018518     0.758882     0.604220     0.455116    -0.375376    -0.078826     0.075197    -0.201775    -0.327997     0.334388     1.373669     0.084337    -0.237936    -0.618333    -0.108229    -1.075246    -1.251056     0.678204     0.414448    -0.121299     0.625836     0.041498     0.140807     0.246832     0.115844    -0.391874     0.968916     0.132701    -0.767577    -0.378385     0.230176     0.981133    -0.350247     1.203475     0.442667     0.277636    -0.011206     0.200455    -0.028557     0.103308    -0.336690     0.320103     0.105733    -0.820923     1.189336     1.450574    -0.915957     0.359080    -0.759809     0.084026     1.142186     0.210391    -0.409477    -0.232696     0.694050     0.117029     1.093714    -1.329770    -0.235726    -0.349859     0.594111    -0.092176     0.547307    -0.052531    -1.107523     0.452275    -1.738169    -0.056069     0.041887     0.108264 