-1400.769700
-1396.701200
-1396.405600
-1395.635100
-1395.291400
-1395.312800
-1394.682100
-1393.621000
-1393.071600
-1392.938100
-1392.326800
-1392.134700
-1391.928400
-1392.150800
-1392.873000
-1392.857700
-1392.230900
-1393.457200
-1393.005900
-1392.168600
-1392.661700
-1391.487900
-1392.027300
-1391.109200
-1391.116900
-1391.073300
-1390.784700
-1391.830700
-1391.604000
-1391.919800
-1390.924900
-1390.949500
-1391.427100
-1390.788300
-1391.293500
-1391.044900
-1391.286900
-1391.675300
-1391.823100
-1391.933900
-1392.239400
-1392.070300
-1392.006000
-1392.461400
-1392.661300
-1391.873400
-1392.241500
-1392.464700
-1392.114700
-1392.057200
-1390.391300
-1391.558500
-1391.675000
-1392.282400
-1391.645100
-1390.590500
-1391.236200
-1390.916100
-1391.460000
-1391.876600
-1392.650400
-1391.649700
-1391.129300
-1392.148000
-1391.498500
-1392.074900
-1391.267300
-1390.593600
-1390.800100
-1390.291900
-1390.555500
-1389.892500
-1390.654700
-1391.116300
-1392.085100
-1391.369300
-1390.598100
-1390.494900
-1390.405600
-1390.442000
-1389.113400
-1390.602600
-1391.033300
-1390.987700
-1390.495500
-1390.826400
-1391.499800
-1390.824500
-1390.686700
-1388.873800
-1390.346700
-1390.011600
-1390.182800
-1391.724500
-1390.782800
-1391.203000
-1391.715700
-1391.073400
-1391.032500
-1388.950700
-1388.975800
-1400.769700
-1396.677800
-1396.524000
-1395.898100
-1396.110500
-1395.822000
-1394.695000
-1393.552800
-1393.378000
-1392.890200
-1393.212800
-1392.248500
-1392.643200
-1393.868100
-1393.568800
-1393.621100
-1394.389400
-1394.364500
-1394.700900
-1394.413400
-1394.137000
-1394.469800
-1393.576600
-1393.857300
-1392.613900
-1392.135600
-1393.455400
-1392.982800
-1393.196200
-1393.017200
-1393.289100
-1393.156800
-1394.303900
-1394.586000
-1393.744100
-1393.919100
-1394.524900
-1393.742300
-1393.030700
-1392.814100
-1393.202300
-1393.206000
-1393.125100
-1392.870600
-1394.166500
-1394.000000
-1393.628200
-1393.848300
-1393.828300
-1394.047400
-1393.081700
-1393.189700
-1392.970500
-1392.295000
-1392.721700
-1392.836700
-1392.839700
-1393.533200
-1392.771700
-1392.393700
-1394.109600
-1393.948900
-1392.989100
-1392.851600
-1393.444700
-1393.020500
-1394.090600
-1394.010000
-1394.480100
-1393.821200
-1393.824900
-1393.980300
-1394.216600
-1394.523100
-1394.247400
-1393.530300
-1394.550900
-1393.741500
-1394.521500
-1393.734700
-1393.829200
-1394.389100
-1393.524200
-1392.524000
-1392.704100
-1393.618000
-1393.768400
-1394.254400
-1394.053800
-1393.586800
-1392.601900
-1394.539100
-1393.110100
-1393.224600
-1394.750300
-1393.471200
-1393.503200
-1393.999000
-1394.422300
-1394.767600
-1394.126400
-1394.036300
-1393.786100
-1394.416500
-1393.319800
-1393.608900
-1393.706300
-1393.461700
-1394.049100
-1393.416500
-1392.639400
-1394.201200
-1393.866800
-1393.352300
-1393.544600
-1394.626200
-1393.908400
-1394.783100
-1393.839900
-1393.974900
-1394.204200
-1393.617900
-1393.811900
-1393.917900
-1393.761100
-1394.629600
-1393.601100
-1392.960900
-1393.838000
-1394.355800
-1394.234400
-1393.046200
-1394.021600
-1394.227000
-1394.395300
-1394.440300
-1394.534200
-1394.163300
-1394.925500
-1394.419900
-1394.486300
-1394.573400
-1395.151400
-1393.395000
-1394.581900
-1394.828400
-1394.765300
-1394.958300
-1393.787800
-1394.644500
-1394.431300
-1395.606900
-1395.744400
-1395.462500
-1394.464600
-1393.588600
-1393.626700
-1393.145000
-1393.459300
-1393.794400
-1394.578200
-1393.518500
-1394.366100
-1394.105000
-1393.969700
-1394.196200
-1393.523800
-1393.396700
-1394.180600
-1394.453400
-1395.370900
-1394.429100
-1394.173000
-1394.870000
-1395.608100
-1395.043700
-1393.417100
-1393.718000
-1394.791700
-1394.334500
-1394.473100
-1393.742900
-1394.526700
-1394.576000
-1394.459700
-1394.651200
-1393.813800
-1394.052000
-1393.935300
-1394.011200
-1393.957200
-1395.883200
-1394.929500
-1394.348000
-1395.193000
-1395.184700
-1394.139100
-1394.296000
-1394.616300
-1394.881700
-1394.294100
-1395.081000
-1394.437200
-1394.648600
-1394.170100
-1393.667100
-1394.592200
-1394.268900
-1394.672700
-1395.646000
-1394.690400
-1394.996400
-1394.518700
-1394.411200
-1394.504600
-1393.636200
-1394.822600
-1394.414200
-1394.530100
-1394.855700
-1393.362300
-1393.878000
-1393.818300
-1394.083900
-1394.520400
-1394.471000
-1394.752300
-1394.154200
-1393.731000
-1394.843500
-1394.256900
-1395.419800
-1394.471100
-1395.011900
-1393.688700
-1394.865700
-1394.254400
-1394.411400
-1394.630000
-1394.590700
-1394.359900
-1394.031900
-1394.852100
-1394.694600
-1394.262700
-1395.660400
-1395.453200
-1395.185400
-1394.551800
-1395.427900
-1395.701300
-1395.337400
-1394.766700
-1395.572100
-1395.398600
-1395.018400
-1395.192300
-1395.386000
-1395.488600
-1395.912700
-1395.346400
-1394.471600
-1395.124600
-1394.673900
-1394.330400
-1394.642500
-1395.195000
-1395.007000
-1394.963500
-1395.657900
-1395.556800
-1394.848900
-1395.178800
-1395.349600
-1394.635300
-1395.106600
-1394.744600
-1394.102500
-1394.609100
-1394.602200
-1393.946500
-1395.578600
-1394.464300
-1395.484200
-1394.819800
-1395.681900
-1395.113900
-1361.388500
-1354.564700
-1393.848000
-1395.007700
-1393.639200
-1394.968600
-1394.463900
-1393.390500
-1394.254700
-1393.487000
-1393.459000
-1392.549600
-1393.673300
-1394.880700
-1394.235100
-1393.314400
-1393.488100
-1393.065300
-1393.543400
-1394.041500
-1394.127000
-1394.293500
-1393.775500
-1394.767300
-1394.690800
-1393.397000
-1394.017700
-1394.602500
-1393.791300
-1394.756800
-1394.785000
-1393.684100
-1394.662000
-1393.721800
-1394.245000
-1394.796900
-1394.611100
-1393.323100
-1393.610700
-1394.145700
-1394.750300
-1395.426300
-1394.316000
-1394.945200
-1394.629600
-1394.410600
-1393.980700
-1393.658500
-1393.146400
-1393.568500
-1394.114700
-1392.902100
-1392.399300
-1393.740300
-1394.240300
-1393.949500
-1394.479600
-1393.325600
-1393.761200
-1394.634200
-1393.244500
-1393.763500
-1393.322300
-1393.578900
-1393.320800
-1393.064200
-1393.563900
-1394.555500
-1394.262800
-1394.421200
-1393.536500
-1393.800700
-1393.426400
-1393.497800
-1394.591700
-1394.473800
-1394.024900
-1393.836000
-1393.840800
-1393.926700
-1393.701100
-1393.282800
-1393.291500
-1393.413900
-1393.684600
-1393.974600
-1393.595900
-1394.149800
-1393.446300
-1393.951400
-1393.068600
-1394.277900
-1393.287500
-1393.272800
-1394.342800
-1393.277400
-1393.693100
-1393.115800
-1393.687200
-1393.620400
-1393.584600
-1393.510500
-1393.384400
-1393.875600
-1393.258900
-1393.108700
-1393.707000
-1393.872500
-1394.151200
-1393.119400
-1392.595700
-1394.109400
-1393.823700
-1394.225900
-1393.088600
-1394.267700
-1393.416900
-1393.552000
-1392.892000
-1393.494800
-1393.499000
-1393.788000
-1393.668600
-1393.109700
-1393.542100
-1394.106400
-1393.375900
-1393.511800
-1393.258600
-1393.744300
-1393.835400
-1393.820700
-1394.925600
-1394.710600
-1394.603200
-1394.447200
-1393.588600
-1393.719500
-1392.966600
-1392.451900
-1393.920400
-1393.814600
-1394.416400
-1393.048300
-1394.242500
-1393.774900
-1393.330500
-1392.089000
-1392.484000
-1393.296800
-1395.077400
-1394.331900
-1394.692400
-1394.983100
-1394.801900
-1395.994700
-1395.390200
-1396.492400
-1394.691700
-1393.843100
-1394.969400
-1394.066400
-1395.152500
-1395.723000
-1394.963900
-1394.826400
-1394.893000
-1395.365400
-1394.031900
-1395.598900
-1396.482600
-1396.127600
-1394.838400
-1394.902100
-1395.363800
-1394.780900
-1394.335900
-1395.589800
-1394.996000
-1396.022600
-1395.968400
-1395.428500
-1395.215100
-1395.520000
-1394.608100
-1394.947300
-1395.600900
-1396.191300
-1396.099500
-1395.582700
-1394.530300
-1395.579400
-1395.088500
-1395.251100
-1395.753300
-1395.202700
-1394.622300
-1394.775100
-1394.969400
-1395.599700
-1395.418200
-1395.500200
-1395.641100
-1395.323600
-1395.693000
-1395.056600
-1396.636500
-1395.151400
-1395.271700
-1395.938100
-1393.952900
-1395.289500
-1395.323200
-1395.928500
-1395.801400
-1396.014500
-1395.714700
-1394.853200
-1394.692600
-1394.727500
-1396.188400
-1395.114700
-1395.370300
-1394.502700
-1394.374600
-1395.370500
-1395.939800
-1394.967900
-1395.617500
-1396.141100
-1395.435100
-1395.414500
-1394.819000
-1394.797100
-1394.734100
-1396.420700
-1395.118500
-1394.569800
-1395.108500
-1395.521600
-1394.904900
-1395.754600
-1395.044100
-1395.501400
-1394.853000
-1395.440000
-1394.962400
-1395.865600
-1394.534800
-1395.915200
-1394.551700
-1395.079100
-1395.331900
-1394.325400
-1394.797300
-1395.021200
-1394.570200
-1395.687400
-1395.460000
-1395.211300
-1395.068500
-1394.439400
-1394.600400
-1394.819500
-1394.476900
-1395.510800
-1395.335800
-1395.578900
-1395.207400
-1395.197700
-1395.056800
-1395.256800
-1394.831400
-1394.219300
-1394.142000
-1394.627300
-1394.228800
-1394.851900
-1396.254900
-1395.087500
-1395.157800
-1394.743300
-1395.339200
-1394.956300
-1395.633100
-1394.365900
-1395.158800
-1394.855700
-1394.641100
-1395.135600
-1394.628900
-1395.064600
-1395.453900
-1395.072700
-1395.844000
-1394.494200
-1394.451300
-1395.106500
-1395.304200
-1395.755600
-1395.708000
-1395.847900
-1395.547800
-1395.027400
-1395.356800
-1395.523800
-1395.180600
-1395.532400
-1395.335700
-1394.988800
-1395.776100
-1395.671600
-1395.528700
-1395.242500
-1395.955500
-1395.089400
-1394.465200
-1395.985600
-1395.749000
-1395.631400
-1394.459500
-1395.357600
-1394.721000
-1394.255600
-1395.046700
-1395.877400
-1394.363200
-1396.458300
-1394.254000
-1395.346300
-1395.064500
-1395.117000
-1395.152700
-1394.235000
-1394.447100
-1395.583700
-1394.472900
-1394.704700
-1395.273400
-1395.129600
-1394.600500
-1395.244400
-1395.119200
-1394.670200
-1395.717700
-1395.228500
-1394.249300
-1395.582200
-1395.129800
-1394.854300
-1395.161400
-1395.244800
-1394.069100
-1394.738700
-1394.599200
-1394.251900
-1393.765500
-1394.764100
-1394.372700
-1394.780600
-1394.604400
-1393.814800
-1394.014500
-1394.439600
-1394.327700
-1393.956900
-1394.396300
-1394.054600
-1394.405500
-1394.325000
-1393.631600
-1393.328600
-1393.958100
-1395.002600
-1394.646300
-1394.526700
-1394.770700
-1394.215000
-1394.544400
-1394.284100
-1393.973900
-1394.750600
-1394.541600
-1394.794800
-1395.088300
-1394.440600
-1393.964400
-1393.728600
-1394.149700
-1394.577700
-1395.553500
-1394.793100
-1394.810300
-1394.343400
-1393.915000
-1394.050600
-1394.305300
-1394.542600
-1393.454000
-1394.234300
-1394.319300
-1395.083800
-1395.420300
-1395.125000
-1395.048200
-1393.935200
-1393.574900
-1394.218300
-1393.142100
-1393.997800
-1394.547800
-1393.769800
-1394.448900
-1394.760300
-1395.267300
-1394.946100
-1395.215500
-1394.842400
-1395.272400
-1394.735300
-1394.541300
-1394.704400
-1394.207200
-1395.495000
-1394.481800
-1394.443000
-1395.145100
-1395.612000
-1394.987700
-1394.776900
-1394.640100
-1393.786800
-1394.444300
-1394.103800
-1394.268100
-1394.552500
-1394.510200
-1394.807200
-1394.660000
-1395.205700
-1395.603800
-1393.085300
-1395.017800
-1395.798900
-1395.488700
-1395.084500
-1394.317600
-1393.973900
-1393.081400
-1394.490300
-1394.281200
-1394.441900
-1395.470800
-1394.820900
-1394.395700
-1394.359400
-1395.033300
-1395.486800
-1395.045900
-1395.310100
-1394.249500
-1395.932400
-1394.437800
-1395.140200
-1395.280400
-1395.728800
-1395.303300
-1395.103700
-1395.945000
-1395.924000
-1394.942500
-1395.122100
-1395.708100
-1394.835700
-1395.431700
-1395.026300
-1395.340400
-1393.493900
-1395.151900
-1394.324500
-1395.447200
-1395.023100
-1395.134000
-1395.319600
-1395.377700
-1394.543100
-1394.544400
-1395.297800
-1395.197600
-1394.928700
-1393.886700
-1394.504600
-1395.093100
-1395.746500
-1395.306400
-1395.417400
-1395.525300
-1395.000900
-1395.277500
-1395.083900
-1395.293700
-1395.400400
-1395.188700
-1395.917800
-1395.924000
-1395.618400
-1396.145500
-1396.036100
-1396.905500
-1396.251800
-1395.840800
-1396.086300
-1395.387200
-1395.297700
-1395.737500
-1395.065100
-1395.565900
-1395.009400
-1394.845700
-1395.569600
-1396.070400
-1395.183600
-1395.289700
-1396.071500
-1395.470900
-1396.208100
-1395.149300
-1396.530000
-1395.469000
-1395.818500
-1397.383000
-1396.540400
-1394.995200
-1394.939600
-1395.940900
-1395.463500
-1395.121700
-1395.423000
-1394.676500
-1395.077900
-1394.505300
-1395.392800
-1395.170800
-1393.713600
-1394.557600
-1394.841300
-1395.555100
-1395.960800
-1395.122300
-1395.785900
-1395.423400
-1395.406500
-1394.326100
-1394.735300
-1395.391200
-1395.313800
-1395.396000
-1395.354300
-1395.062700
-1394.731000
-1395.161200
-1394.740100
-1394.553200
-1394.966700
-1395.038300
-1395.570200
-1396.019400
-1395.469400
-1395.398500
-1395.248900
-1395.386200
-1395.187200
-1395.536300
-1394.592000
-1395.427100
-1395.975700
-1396.163100
-1395.220700
-1396.280400
-1396.340000
-1394.792900
-1395.387300
-1395.352200
-1396.156500
-1396.445500
-1396.870100
-1395.574300
-1395.993600
-1396.157700
-1395.448200
-1396.044000
-1396.238200
-1395.373000
-1396.735600
-1395.429900
-1395.921900
-1394.988500
-1395.935000
-1395.723800
-1396.344700
-1396.077900
-1397.426800
-1395.552300
-1396.477300
-1396.154100
-1397.394800
-1394.399800
-1393.995600
-1394.084600
-1395.445000
-1394.826100
-1394.459300
-1395.528400
-1395.221100
-1395.399100
-1393.710700
-1394.859300
-1395.497900
-1395.168100
-1395.337600
-1395.682000
-1394.861600
-1394.879000
-1395.488600
-1394.874100
-1394.472900
-1395.213100
-1395.392300
-1394.721500
-1395.551400
-1395.350600
-1394.959600
-1394.929500
-1394.592500
-1395.064600
-1395.741000
-1395.021300
-1394.551600
-1394.724000
-1394.650700
-1394.618300
-1396.280300
-1394.968900
-1395.767600
-1395.218200
-1394.619100
-1394.959700
-1394.672300
-1395.121400
-1395.150400
-1394.423200
-1395.456200
-1395.946200
-1395.937300
-1395.740000
-1395.363400
-1394.512100
-1394.021000
-1394.532800
-1395.501400
-1395.530100
-1394.727600
-1395.064400
-1395.828600
-1395.908600
-1396.291200
-1396.227900
-1394.971600
-1395.613200
-1395.054400
-1395.521500
-1395.275900
-1395.204000
-1394.700400
-1394.821600
-1395.735100
-1395.566400
-1394.825100
-1394.939500
-1394.527300
-1394.425600
-1394.711800
-1395.105000
-1394.820100
-1394.725300
-1394.530400
-1394.339500
-1395.024500
-1395.486900
-1394.940700
-1393.990700
-1394.904400
-1395.490700
-1395.360700
-1393.409100
-1393.734200
-1395.167700
-1394.601100
-1395.430500
-1395.157900
-1395.359600
-1394.991700
-1395.200500
-1395.524700
-1394.291000
-1394.845200
-1395.134700
-1394.558100
-1395.728800
-1395.297400
-1394.867800
-1395.103100
-1394.656000
-1395.004700
-1395.045600
-1395.512700
-1395.633100
-1395.819900
-1395.010300
-1395.399800
-1395.289600
-1394.981500
-1394.160400
-1395.478800
-1395.018300
-1395.670300
-1395.353800
-1395.813600
-1395.010900
-1395.543500
-1395.742500
-1394.770800
-1395.353400
-1393.531400
-1395.931200
-1395.353800
-1394.840300
-1394.661000
-1394.463200
-1395.793400
-1395.787800
-1394.853100
-1395.036600
-1394.510500
-1395.485400
-1395.001000
-1394.610600
-1395.152900
-1394.834000
-1395.279400
-1394.914500
-1395.400600
-1395.557700
-1395.124200
-1394.675800
-1394.601000
-1394.294800
-1394.054400
-1393.974900
-1394.522500
-1393.642500
-1393.910000
-1394.117700
-1394.330400
-1393.865000
-1393.427500
-1393.161100
-1394.493900
-1394.282600
-1393.969800
-1394.633000
-1394.241600
-1393.276600
-1393.078600
-1392.831600
-1393.013700
-1394.398400
-1395.584900
-1395.503500
-1395.806600
-1395.554100
-1396.374600
-1396.217900
-1394.721500
-1394.276800
-1395.279600
-1395.671700
-1394.873300
-1395.233400
-1395.494100
-1397.450800
-1395.835600
-1395.822500
-1396.224800
-1395.522400
-1395.054900
-1395.155300
-1395.707700
-1396.516900
-1394.404800
-1394.042000
-1394.449900
-1395.625400
-1394.884300
-1395.180700
-1394.481500
-1394.851200
-1395.093700
-1394.009300
-1395.506200
-1395.218300
-1395.923100
-1395.630200
-1395.821900
-1395.836100
-1395.504100
-1395.490500
-1395.525000
-1394.311600
-1395.432600
-1395.309100
-1395.953200
-1394.274000
-1395.734900
-1395.710400
-1396.051100
-1395.547400
-1395.282000
-1395.136900
-1395.308900
-1394.406600
-1395.941400
-1394.981000
-1395.643600
-1394.998400
-1395.400400
-1395.463400
-1395.435200
-1395.026300
-1395.524500
-1394.739400
-1395.400300
-1395.109400
-1395.323700
-1395.547200
-1394.617000
-1395.929100
-1395.398800
-1396.382900
-1396.790600
-1397.178700
-1396.666300
-1395.893600
-1395.846000
-1396.351300
-1395.448800
-1394.949500
-1395.556200
-1396.431700
-1395.236400
-1395.898900
-1395.784300
-1395.708500
-1395.739100
-1395.895700
-1396.166200
-1396.060700
-1394.857300
-1394.928900
-1395.733100
-1396.279400
-1395.400300
-1394.585900
-1397.507700
-1395.765300
-1395.699700
-1395.544600
-1395.543200
-1394.967300
-1394.765400
-1395.718100
-1395.371700
-1394.969700
-1395.918700
-1394.875900
-1394.823300
-1395.472600
-1394.941200
-1395.599700
-1395.197400
-1395.460500
-1395.074500
-1395.968400
-1395.960400
-1395.582400
-1395.634700
-1396.687200
-1395.327000
-1395.004200
-1394.929400
-1395.219300
-1395.127700
-1396.002100
-1395.448900
-1395.665800
-1395.432600
-1394.873800
-1395.757800
-1395.511500
-1395.653800
-1395.647900
-1395.302800
-1395.772400
-1396.125300
-1394.989200
-1395.762400
-1394.985300
-1396.156800
-1395.558100
-1395.947200
-1395.735000
-1395.502100
-1395.186000
-1396.166600
-1395.088800
-1396.197400
-1396.217600
-1395.621500
-1394.770400
-1396.003200
-1395.443900
-1396.369300
-1395.486300
-1395.324600
-1395.557500
-1395.896900
-1395.407300
-1395.165400
-1394.853300
-1395.699000
-1395.636800
-1395.215300
-1395.874400
-1394.642500
-1395.754400
-1395.709100
-1395.984100
-1395.155100
-1396.247200
-1396.773600
-1395.094800
-1396.580200
-1396.324800
-1395.940800
-1396.351200
-1395.558600
-1395.239600
-1396.193800
-1395.968100
-1397.132200
-1397.542700
-1396.195200
-1395.725700
-1396.277700
-1396.897200
-1397.237500
-1396.297500
-1396.161000
-1397.052800
-1396.874700
-1396.237600
-1395.983500
-1395.212300
-1395.640100
-1395.460600
-1395.132100
-1395.996800
-1396.049500
-1395.527700
-1396.284400
-1395.712800
-1394.825400
-1395.411600
-1396.361500
-1397.104700
-1396.276700
-1396.578600
-1396.988700
-1396.690800
-1396.902300
-1396.154300
-1397.295200
-1396.314100
-1397.504400
-1397.443800
-1396.175100
-1396.659200
-1396.450900
-1397.137700
-1395.596300
-1396.879700
-1396.408700
-1394.857900
-1395.657100
-1396.155600
-1395.194100
-1396.918600
-1396.802100
-1397.278600
-1395.665100
-1396.155800
-1396.359600
-1397.119300
-1396.669700
-1397.016200
-1395.909800
-1396.883200
-1397.016600
-1396.755300
-1396.299800
-1396.068500
-1395.739600
-1395.937700
-1396.216100
-1396.165200
-1395.183400
-1396.720600
-1397.000500
-1396.282300
-1396.478700
-1396.501700
-1396.278400
-1396.331700
-1397.252500
-1395.885100
-1397.220700
-1396.606600
-1397.083400
-1396.577600
-1396.076600
-1396.828600
-1397.162400
-1396.755700
-1396.453500
-1396.455800
-1396.319000
-1396.854600
-1395.699000
-1395.026900
-1396.263700
-1397.315800
-1396.804900
-1395.172700
-1395.551800
-1396.698300
-1396.390300
-1395.836800
-1395.130600
-1395.425400
-1395.316600
-1396.115100
-1395.204300
-1396.668400
-1397.057100
-1396.667000
-1396.019300
-1396.192900
-1396.974100
-1396.923400
-1396.034600
-1396.982300
-1397.114400
-1395.656400
-1396.531800
-1396.042900
-1396.778300
-1396.120200
-1395.609100
-1396.331900
-1396.051300
-1396.290100
-1396.964500
-1395.785900
-1396.232700
-1396.173400
-1396.398600
-1396.246300
-1396.433600
-1396.209000
-1396.595300
-1396.496700
-1396.539900
-1396.186100
-1396.072100
-1395.567800
-1396.974600
-1396.496400
-1396.870600
-1396.541500
-1396.819000
-1396.085800
-1396.482900
-1395.922400
-1396.593200
-1396.953700
-1395.850400
-1396.975500
-1396.201500
-1396.107600
-1395.219000
-1395.402300
-1396.168200
-1396.309700
-1396.392000
-1395.074600
-1396.270200
-1395.471800
-1394.818300
-1396.921900
-1395.820900
-1395.891300
-1395.988100
-1396.959700
-1397.130500
-1396.033000
-1397.008500
-1395.671100
-1394.380600
-1396.180000
-1396.435100
-1396.406300
-1396.284600
-1396.280700
-1396.720900
-1396.425600
-1396.477500
-1396.456600
-1396.584700
-1397.223300
-1395.075900
-1394.582800
-1396.911900
-1397.096300
-1395.568000
-1396.996800
-1397.615700
-1395.254600
-1395.805500
-1396.486800
-1396.357100
-1397.116100
-1396.810200
-1396.739700
-1395.371200
-1397.167200
-1396.632900
-1396.994800
-1396.585600
-1397.452000
-1397.108100
-1396.854200
-1397.311900
-1397.085000
-1397.494800
-1396.460300
-1397.531900
-1395.521300
-1395.761700
-1395.866800
-1396.872000
-1396.135700
-1397.004400
-1395.735500
-1396.893800
-1395.458800
-1396.282300
-1396.826000
-1395.471200
-1396.068700
-1396.355900
-1396.532000
-1396.400600
-1395.531800
-1395.811300
-1395.392200
-1395.493300
-1395.911000
-1395.730100
-1396.283100
-1395.177500
-1395.984700
-1395.598400
-1396.527300
-1396.523700
-1396.518900
-1397.364500
-1395.403800
-1395.450100
-1395.604500
-1396.452400
-1396.399300
-1396.467500
-1396.394800
-1397.026000
-1396.758400
-1396.835700
-1396.338000
-1396.699400
-1396.801800
-1396.346000
-1396.256100
-1396.908400
-1396.826600
-1395.746000
-1395.363400
-1394.861600
-1395.500600
-1396.562300
-1396.073900
-1396.453700
-1396.869800
-1396.695800
-1396.729500
-1395.939100
-1395.984200
-1396.072900
-1395.242000
-1396.257900
-1395.768800
-1395.955300
-1395.112200
-1394.868600
-1396.372300
-1395.469500
-1395.499000
-1396.047600
-1395.592200
-1397.083500
-1395.441400
-1396.594600
-1395.620800
-1395.382200
-1395.780100
-1395.419600
-1396.217900
-1396.217900
-1396.318300
-1395.955400
-1396.435100
-1395.434800
-1394.715400
-1396.173500
-1395.094700
-1396.390900
-1395.653600
-1396.510400
-1396.234900
-1396.038900
-1396.109200
-1395.917500
-1396.356500
-1396.356900
-1395.129700
-1396.403800
-1395.354800
-1395.946200
-1395.414900
-1394.944400
-1396.467600
-1395.689300
-1394.724500
-1395.550700
-1396.318000
-1396.216900
-1395.931800
-1395.451100
-1396.285200
-1395.603700
-1395.956200
-1395.712400
-1396.845200
-1396.676600
-1395.714700
-1396.802400
-1396.121900
-1396.045600
-1395.148300
-1395.940300
-1395.895200
-1395.919600
-1395.832800
-1396.140300
-1395.776200
-1396.397400
-1395.613200
-1395.208800
-1396.146000
-1396.516600
-1395.615600
-1395.447300
-1396.006200
-1395.555900
-1396.318700
-1394.867100
-1395.670700
-1395.669000
-1395.051000
-1395.213900
-1395.861200
-1396.454200
-1395.176200
-1394.929600
-1395.977000
-1396.315400
-1396.082600
-1396.394300
-1396.091700
-1396.380300
-1395.803600
-1396.106900
-1396.019800
-1395.734000
-1396.887200
-1396.101700
-1396.498600
-1397.186700
-1396.272900
-1396.250600
-1396.152400
-1396.644100
-1396.393200
-1395.784100
-1396.898700
-1397.246500
-1397.288600
-1396.723100
-1397.333000
-1397.867300
-1396.940500
-1396.419200
-1397.680900
-1396.872200
-1397.780300
-1396.222600
-1397.361500
-1397.504600
-1397.188700
-1397.027200
-1397.691100
-1397.270600
-1397.849300
-1397.333600
-1398.347500
-1397.144800
-1397.690700
-1398.309500
-1397.977800
-1398.042100
-1396.058700
-1396.696300
-1396.294900
-1396.935000
-1396.437800
-1395.288300
-1397.059500
-1396.162800
-1395.954300
-1396.915300
-1396.736200
-1397.496200
-1396.819800
-1397.041700
-1397.566300
-1397.298400
-1396.010700
-1397.484100
-1396.732700
-1396.384200
-1396.451900
-1396.405400
-1397.015300
-1396.929700
-1395.333300
-1395.689200
-1396.734800
-1395.175400
-1396.287100
-1395.590000
-1395.252600
-1396.607000
-1395.902500
-1395.922200
-1395.930100
-1396.855300
-1395.562500
-1396.037100
-1396.460700
-1395.354800
-1395.999300
-1396.920700
-1396.866500
-1396.160900
-1396.802400
-1395.913400
-1396.464100
-1396.741500
-1397.322000
-1396.373500
-1396.784800
-1396.732000
-1395.350300
-1395.814800
-1396.823000
-1396.244500
-1396.025000
-1395.830000
-1396.227600
-1396.540300
-1396.204900
-1395.889500
-1396.341500
-1397.141800
-1396.255800
-1395.946300
-1395.560100
-1395.685600
-1396.461200
-1396.431600
-1396.894600
-1397.053100
-1396.325200
-1395.866000
-1395.845800
-1397.223900
-1396.695300
-1397.270600
-1396.944500
-1396.648700
-1396.777900
-1397.200100
-1396.953800
-1396.219000
-1396.508600
-1395.978600
-1396.638400
-1396.646300
-1397.027700
-1396.830900
-1397.834500
-1396.072000
-1396.373800
-1395.115800
-1394.382800
-1394.406200
-1396.275400
-1395.250200
-1395.689300
-1396.294800
-1396.375500
-1395.941000
-1396.839200
-1397.291700
-1398.021800
-1398.404100
-1397.421600
-1397.934700
-1397.880200
-1397.367100
-1398.122600
-1397.157100
-1397.025200
-1397.889800
-1397.531500
-1396.630300
-1396.969900
-1397.775900
-1397.441200
-1397.480100
-1396.422100
-1397.596300
-1397.372400
-1397.449800
-1396.845300
-1396.553800
-1396.698300
-1398.939300
-1395.747200
-1397.174100
-1396.960600
-1397.610600
-1397.145700
-1397.019800
-1397.103800
-1397.094300
-1397.633600
-1396.512100
-1397.150700
-1397.530400
-1397.343500
-1396.802500
-1396.455200
-1396.788500
-1397.298300
-1395.968000
-1396.529900
-1396.680100
-1396.574000
-1397.067700
-1397.201700
-1396.427200
-1396.888300
-1397.521700
-1396.828300
-1396.558400
-1397.358000
-1398.220400
-1397.469200
-1397.901400
-1397.061800
-1396.513900
-1396.475400
-1396.846500
-1396.748800
-1396.745000
-1396.632400
-1397.127100
-1397.726100
-1397.541400
-1395.875400
-1396.901100
-1397.564500
-1396.878600
-1397.009200
-1397.411600
-1396.976100
-1397.089100
-1396.516800
-1396.936500
-1397.827300
-1397.806800
-1398.300200
-1396.998500
-1397.566700
-1398.185600
-1397.930700
-1398.106800
-1398.500100
-1397.947100
-1398.506300
-1397.898100
-1397.592100
-1397.461700
-1397.890600
-1397.603600
-1397.441200
-1397.578100
-1397.146100
-1396.653800
-1397.333800
-1397.002900
-1397.834200
-1397.089700
-1397.221700
-1396.983800
-1396.058600
-1397.694800
-1396.986100
-1397.476500
-1397.473700
-1396.708500
-1397.108800
-1396.353100
-1396.910700
-1397.317000
-1396.588500
-1397.121900
-1396.900900
-1397.685900
-1396.879200
-1396.500100
-1396.274900
-1396.644500
-1396.962300
-1398.048100
-1396.748000
-1396.665000
-1397.119500
-1397.091000
-1396.719000
-1396.804400
-1396.597500
-1397.149200
-1396.183500
-1396.870600
-1398.162200
-1396.736400
-1394.618900
-1395.870400
-1396.467200
-1395.541100
-1395.829200
-1395.212400
-1395.613000
-1397.242800
-1397.212000
-1396.293100
-1396.122400
-1395.187700
-1395.614400
-1396.251100
-1395.921000
-1396.255200
-1397.090800
-1396.737200
-1396.377600
-1396.809100
-1395.772700
-1396.095000
-1395.931800
-1396.646600
-1396.650800
-1396.876000
-1395.386800
-1396.143000
-1396.690900
-1397.226300
-1396.430100
-1397.079200
-1396.132600
-1396.248500
-1396.216600
-1396.207900
-1396.222900
-1396.466900
-1396.158600
-1395.804400
-1395.542800
-1396.766800
-1396.567600
-1395.861000
-1395.975700
-1396.005900
-1397.153300
-1396.908000
-1396.749900
-1395.458400
-1397.024600
-1396.312200
-1396.240200
-1396.501300
-1396.267300
-1395.902700
-1396.626000
-1396.427900
-1396.318500
-1396.881600
-1396.236600
-1396.854500
-1396.761000
-1396.493100
-1397.015600
-1396.971500
-1397.745200
-1397.466400
-1397.323600
-1396.480100
-1397.028300
-1396.033900
-1396.292100
-1396.560200
-1396.720700
-1397.016200
-1396.671500
-1396.092500
-1396.785700
-1397.075800
-1396.615100
-1396.738100
-1396.750300
-1395.923700
-1396.381600
-1395.943200
-1395.014900
-1395.615500
-1397.202000
-1396.824800
-1396.888400
-1395.916900
-1395.899400
-1396.753200
-1397.487800
-1396.560900
-1397.343400
-1396.256700
-1396.557400
-1396.790700
-1396.174700
-1396.387800
-1396.316900
-1397.088400
-1396.101100
-1397.310600
-1396.594700
-1397.182800
-1396.748100
-1396.068300
-1396.313400
-1396.289700
-1395.866600
-1395.724400
-1396.150200
-1397.555400
-1396.587000
-1396.433500
-1396.763100
-1396.503800
-1396.102000
-1396.871000
-1395.944700
-1396.889000
-1397.639700
-1396.534100
-1395.490200
-1396.905100
-1397.009800
-1396.675800
-1395.507800
-1396.800000
-1397.662200
-1395.723600
-1396.280800
-1396.068400
-1396.148000
-1396.326600
-1396.098700
-1396.267200
-1396.472500
-1396.537800
-1396.447700
-1396.500500
-1395.908100
-1396.682600
-1396.767700
-1396.178200
-1396.630900
-1397.344000
-1396.299300
-1397.161900
-1397.038100
-1395.538400
-1396.149900
-1395.896600
-1397.014900
-1395.798700
-1397.112900
-1395.410200
-1395.916400
-1394.952200
-1396.939300
-1397.470900
-1396.259000
-1397.212700
-1396.102000
-1396.159200
-1397.149200
-1396.687300
-1396.487600
-1396.731600
-1395.709500
-1395.863500
-1396.221300
-1396.629500
-1396.730300
-1396.970500
-1397.101400
-1396.083800
-1396.304900
-1395.661900
-1395.641000
-1396.201800
-1396.019800
-1397.175800
-1396.616300
-1396.733700
-1397.023000
-1396.181900
-1396.771200
-1396.562400
-1396.464700
-1396.736800
-1396.870000
-1396.945200
-1396.534100
-1396.905300
-1395.986400
-1396.712700
-1395.750000
-1395.517900
-1395.771600
-1396.316600
-1396.336100
-1395.778800
-1397.030000
-1396.361100
-1396.399600
-1396.925400
-1396.611700
-1396.847900
-1396.826100
-1395.578600
-1395.866600
-1397.186500
-1396.903000
-1396.835400
-1396.660900
-1396.763700
-1397.244700
-1396.768400
-1397.223200
-1396.633000
-1395.930300
-1396.385800
-1396.724700
-1396.989500
-1396.315500
-1396.772300
-1395.982300
-1396.076400
-1395.846900
-1395.501200
-1396.966100
-1395.875700
-1396.301300
-1396.341500
-1397.113500
-1396.399500
-1396.404700
-1396.916000
-1396.162000
-1396.485900
-1397.271200
-1396.546400
-1396.134200
-1397.618600
-1396.022300
-1396.607200
-1395.128600
-1395.381200
-1395.103700
-1394.329600
-1395.878100
-1394.719400
-1396.442800
-1396.555700
-1397.138100
-1396.546400
-1397.015900
-1396.146900
-1397.091300
-1395.906000
-1395.516000
-1395.383300
-1395.484700
-1395.895800
-1396.662900
-1396.128800
-1395.075800
-1395.704700
-1395.647200
-1395.422800
-1395.786500
-1395.847200
-1396.145200
-1396.358100
-1396.491200
-1396.324700
-1396.065000
-1395.810000
-1395.020200
-1396.469000
-1394.650100
-1396.377800
-1396.897300
-1397.057600
-1397.309400
-1396.735400
-1396.040300
-1396.721800
-1396.356100
-1396.599500
-1396.924000
-1397.024200
-1396.172700
-1397.305900
-1395.665800
-1396.364400
-1397.064900
-1396.706400
-1396.772200
-1397.813200
-1396.233100
-1397.020000
-1396.548000
-1395.933600
-1397.312800
-1396.480400
-1395.800600
-1396.737000
-1395.516800
-1396.333500
-1395.710000
-1396.651200
-1396.638000
-1396.965700
-1396.259300
-1396.318300
-1396.890400
-1396.815200
-1397.529700