-1302.291900
-1304.196600
-1304.799300
-1297.542200
-1304.807700
-1302.051500
-1301.015000
-1306.003300
-1302.010800
-1305.344800
-1304.892000
-1304.467300
-1303.986200
-1305.731400
-1305.025800
-1304.494000
-1300.819600
-1308.827100
-1304.780000
-1305.101600
-1302.785400
-1306.060500
-1305.218400
-1304.457400
-1303.381700
-1303.858100
-1304.903500
-1306.137300
-1302.837800
-1304.111600
-1307.281200
-1307.593400
-1305.022100
-1301.558200
-1306.108500
-1299.634300
-1301.712200
-1304.299600
-1306.424600
-1303.334900
-1304.099000
-1306.265100
-1307.668300
-1302.388600
-1307.517600
-1308.773900
-1298.909100
-1306.811200
-1305.102700
-1303.834500
-1306.783400
-1305.788300
-1303.431000
-1303.730800
-1305.652400
-1305.322700
-1305.843600
-1302.507000
-1306.335900
-1308.211000
-1307.034200
-1299.736500
-1305.027300
-1308.212200
-1306.460400
-1306.900200
-1307.409900
-1308.289000
-1305.440200
-1307.613400
-1304.946100
-1303.414200
-1305.896300
-1308.158400
-1305.926200
-1302.757600
-1306.819600
-1305.778400
-1305.593000
-1304.378200
-1307.384900
-1305.859300
-1304.146200
-1304.023200
-1304.128500
-1303.727000
-1302.128400
-1302.860600
-1306.781200
-1304.736600
-1303.804100
-1301.961700
-1303.324800
-1303.375900
-1299.539200
-1305.824500
-1302.631200
-1301.403400
-1303.323600
-1303.272600
-1304.593700
-1302.685800
-1302.742100
-1300.837300
-1299.728700
-1299.866700
-1305.643900
-1301.719800
-1306.038100
-1304.561800
-1302.420400
-1302.926200
-1304.337700
-1304.807000
-1302.243100
-1305.379100
-1304.604800
-1302.681800
-1301.462700
-1305.880300
-1301.301800
-1301.571400
-1306.179800
-1301.342100
-1303.540300
-1301.196800
-1304.399100
-1305.929800
-1304.927400
-1300.946100
-1305.180100
-1305.758600
-1303.818200
-1302.759800
-1306.275100
-1302.556400
-1304.711700
-1301.151500
-1303.975300
-1302.837100
-1294.825500
-1301.178000
-1302.028400
-1304.140000
-1301.720900
-1305.820400
-1303.305400
-1302.477300
-1300.278000
-1304.709400
-1304.833800
-1302.511700
-1302.744000
-1303.116100
-1303.414100
-1299.613100
-1298.755400
-1301.443600
-1305.371300
-1304.449800
-1307.910100
-1306.237600
-1304.245500
-1302.252100
-1303.783300
-1305.469000
-1304.585200
-1305.546800
-1305.659800
-1301.404800
-1304.016300
-1304.064500
-1305.247200
-1307.155000
-1308.123100
-1304.380900
-1302.027200
-1305.684600
-1304.959700
-1303.851400
-1305.682700
-1304.857400
-1307.589000
-1305.317000
-1305.224100
-1303.603700
-1304.775900
-1307.169300
-1303.853400
-1303.315100
-1304.389500
-1305.254200
-1306.316500
-1309.480400
-1306.442100
-1307.695300
-1308.537200
-1307.163400
-1308.086800
-1301.438700
-1303.593400
-1306.232300
-1306.365800
-1307.726600
-1301.753300
-1305.625500
-1302.659000
-1306.096900
-1305.334800
-1303.836000
-1302.696600
-1307.239400
-1303.391800
-1307.023200
-1306.534000
-1305.518300
-1307.377700
-1307.163400
-1296.339300
-1302.405400
-1305.879300
-1304.853200
-1307.659800
-1305.110600
-1304.031000
-1295.745100
-1301.069000
-1304.679200
-1307.173300
-1306.053300
-1306.431300
-1302.918000
-1306.384300
-1307.843900
-1304.078800
-1303.153700
-1306.028600
-1305.520900
-1304.527200
-1305.211300
-1304.823900
-1302.813400
-1303.695500
-1303.275900
-1307.193300
-1303.793500
-1303.048600
-1298.599400
-1306.113700
-1301.257200
-1304.276900
-1304.716500
-1303.772000
-1303.273800
-1301.825500
-1302.917300
-1300.282400
-1305.761900
-1301.814200
-1300.597300
-1305.597300
-1304.206200
-1302.481000
-1301.879900
-1302.846200
-1306.022700
-1302.497700
-1300.369200
-1305.357300
-1305.768700
-1307.049000
-1302.385300
-1302.351800
-1302.781500
-1301.268100
-1303.150900
-1302.184300
-1303.808200
-1302.357000
-1302.971600
-1305.682400
-1304.218300
-1300.141400
-1304.820300
-1301.469000
-1303.178200
-1302.759400
-1304.934200
-1306.152900
-1302.195500
-1305.223400
-1301.934600
-1302.414600
-1304.665400
-1306.017000
-1305.609200
-1302.263000
-1304.918400
-1302.387200
-1301.400700
-1306.123500
-1303.813800
-1304.543800
-1302.534900
-1301.117700
-1302.400300
-1299.349000
-1306.370300
-1304.053500
-1301.113400
-1302.198300
-1303.162700
-1301.700000
-1303.757000
-1305.244000
-1305.321200
-1301.063900
-1302.765800
-1304.066600
-1302.819100
-1304.258900
-1298.798000
-1301.122900
-1304.405200
-1304.660300
-1303.332100
-1302.721300
-1297.383400
-1303.378500
-1303.572900
-1301.305800
-1304.120000
-1305.294000
-1301.891100
-1306.523700
-1304.047600
-1301.874700
-1300.498400
-1303.894700
-1302.997600
-1305.984500
-1304.361500
-1303.484500
-1301.891300
-1304.783600
-1306.262000
-1302.395200
-1304.984700
-1305.044800
-1306.215500
-1302.431700
-1302.731300
-1303.652200
-1304.173900
-1303.120100
-1305.233000
-1302.639700
-1303.603700
-1301.223100
-1304.196100
-1304.879100
-1303.797100
-1303.566900
-1301.542000
-1302.706300
-1303.855000
-1305.541200
-1304.266500
-1301.339400
-1305.470100
-1305.576400
-1302.267100
-1305.249000
-1303.544500
-1300.436700
-1306.370500
-1298.843200
-1302.562900
-1303.087400
-1303.773600
-1300.129900
-1303.022000
-1306.236900
-1303.212900
-1303.432200
-1302.313700
-1304.811600
-1305.115000
-1301.689000
-1300.578700
-1301.796600
-1302.617400
-1302.939900
-1305.082100
-1302.882700
-1303.749600
-1298.823600
-1300.683800
-1304.849800
-1305.171000
