   -0.989584    -0.935114    -1.142304    -1.707105     1.225704    -2.548904    -0.131932    -2.901854    -1.901324     0.648162     0.095107     1.114810     0.852347    -3.465303    -3.610372    -0.730497    -0.177661     0.983225    -0.378165     1.104365     0.903960    -2.137634     0.327495    -2.083494    -2.316497     0.797522    -0.815431     6.720012     3.235630    -6.255620    -0.953126     0.155254    -0.752970     3.696140    -2.739903     2.180492    -1.397334     4.187144     3.972338     1.026170     1.364612    -0.374863     1.925265    -0.771884     0.755130    -1.976284    -0.500009    -1.089707    -0.496684     1.240335     1.103970     0.006935     1.241827     1.868271     6.474910    -3.148048     6.077455    -1.504846    -1.078052     1.822780     0.624332    -0.702503     0.421369    -0.210523    -1.000755    -3.772645    -1.041503    -1.012665     1.683112     1.467443    -1.102981    -1.733146    -4.846524     3.601609    -3.420675     1.583796     0.955190     0.344333     2.006691    -0.155243    -1.807582    -0.339444    -1.304607     0.187551    -0.906387    -0.009020     0.143720     2.435160     0.229815     0.483932     0.835483     0.989736    -0.815059    -2.412424    -1.028072    -0.072789     0.851385     0.873027     0.460457    -0.960720    -0.036013    -0.960484    -1.185680    -0.823108     0.949577     1.585401    -0.191237    -1.348291     0.616077     1.061834    -1.493683     2.147164    -0.814944     2.035675    -4.597468    -2.628674     4.384213     1.050462     0.516776     0.713093     2.615916    -5.551965    -1.303657    -3.547110    -0.301837    -0.723530     0.785138     2.364329    -0.889424     0.152831     1.948878     0.441137    -1.964935     0.801512     1.081833     3.068809    -2.653710    -1.071127    -1.824624     4.735588     2.339623     3.131870    -1.772065     0.286236    -3.835194     2.897873    -7.176603    -4.995636    -2.772423     6.712400     2.625858     0.122187     1.308652    -1.522996    -2.283805     1.619667    -1.676475     1.355118     1.110864     1.469310     3.685795     1.289211     4.002019    -1.642346     3.654380    -1.032062    -1.306857     0.252579    -2.400288     0.672745    -1.867170    -2.156038    -2.483230     1.139044    -1.425932     1.742054     0.090059     3.193702     3.380110    -3.829624     0.195996    -2.296916    -1.512346     0.630744     0.025683    -1.490692    -4.198737    -1.890245    -0.444910    -1.000350    -1.489984     3.897416     0.284479    -1.644699     0.793027     7.481062     1.117640     3.634408    -3.229845    -2.505100     1.043462     3.416140    -1.303233    -0.355689    -0.070384     0.891186    -0.836173    -1.417293    -0.569496    -0.735578    -0.894543    -0.415845    -0.614425    -2.702009     2.371549     1.313521     3.757977    -0.573530     3.234273     1.063313    -1.520876     3.951227    -1.591539     0.943408     5.177555     0.842200     1.242494    -0.461305    -8.807879     7.616362     7.109603     0.063817     3.863836    -0.177620     0.481532    -0.315018    -0.210909     6.902340    -3.927536     2.730596    -1.160016    -1.805329    -1.716542     0.396534    -0.086724     1.020811    -3.905016     1.106287    -0.727383     1.324277     1.368347     2.866472     3.209571    -0.563673     0.539790    -0.465746     0.451393    -1.360811     7.937251    -1.547938     1.532296    -0.641708    -3.299848     0.614038    -0.265081    -1.779218     2.105551    -1.428487     4.178139    -4.568360     0.699216    -1.462840     1.367101     1.346120    -0.768517     2.382577     3.296361     1.173814    -3.942205    -2.341110    -2.445253    -1.983804     0.279230     0.577397     0.841079     0.180860     0.322157     0.001326    -0.516584     1.683976     0.489291     3.146865     1.757488     0.293640    -0.579460    -0.498166     0.887051     0.139325     2.040415    -1.571902    -0.155547    -1.596883     0.385169    -5.112654    -0.912050    -3.889310    -1.909105    -0.148122     0.345808    -0.300110    -0.380250    -0.463695     3.213093     2.651716    -0.580908    -1.754906     0.989366     1.379597    -1.313339     0.382367    -0.906497     3.475248    -0.843912     0.661869     0.682310    -0.474635     1.480123     0.069476    -0.453672     0.307282     1.140417     0.017111     0.111268     2.365534    -0.732337    -1.579753     0.129249     0.127703     0.155889    -1.746024     0.964920    -1.010328    -3.802003     0.597141    -3.497680     0.755106     0.519040    -2.479834    -0.023047     1.830887    -0.128481    -0.860232    -0.847416     0.337613     0.851097    -3.156878    -0.267897    -0.874442    -0.590365     0.480759    -0.149626     0.028796    -0.075669    -0.448921    -0.333087    -0.311751     1.072032     1.058559     1.633906    -0.268740     0.203882     0.070767    -0.151806    -0.456193    -0.079808     0.423367     1.162019    -1.930252    -0.853999     0.542529    -0.760229     0.147153     0.668699    -0.159300    -1.016785    -1.883654    -2.399419    -2.738305     0.347352    -0.492625     0.122304     0.263935    -0.000078     1.275531     1.185000    -2.397648    -0.277820     0.195334    -0.064264    -1.112791     0.075877     1.643429    -6.462107     1.464012    -3.128220    -0.933291     1.948667     1.613344     0.344090     1.080800    -1.817774     0.056835     0.322531     0.400997    -0.633472    -2.276376     1.137750    -0.949156     0.061847     0.469869    -0.155587     0.502198    -1.195309    -0.484131    -1.875777    -2.585361    -0.202227    -1.974335    -0.820766    -1.211938     2.722035    -1.205962    -0.435147     0.349165     0.011212     1.894549    -0.573210     3.355126    -1.009149    -0.379180    -0.496350    -1.868130    -0.877240     3.690732     2.312261    -0.249252    -0.088551     0.243011     2.787318     1.386349     0.589813     0.526427     0.387068     0.706684    -0.745133    -2.141831    -0.128251    -0.239739     0.205049     0.258433     1.548424     1.007319     1.273635    -1.014829    -0.047717     1.619139     0.558702    -2.042514    -0.020301    -0.178736    -0.249811     8.353099    -7.283839    -7.264252     0.579690    -0.456649     0.162908    -0.100452     1.130594    -1.355865    -6.680368     2.705691    -1.196631     0.334194    -0.221767     0.121014 
    0.629121     0.436167     0.629712     0.050509     1.368226     0.969179    -3.502754     0.987083    -2.838975     1.266536    -1.802176    -2.411812     0.395267    -2.522427    -2.199382     0.008980    -2.189593    -1.921708     1.335816     1.619357     1.228955    -0.146794    -0.714211    -0.041876     0.568088     1.141539    -0.277440     5.646538     2.410111    -4.914132    -1.609141    -0.209080     0.677190     2.851110    -0.320961     1.168969    -0.124523     2.310858     0.014820     0.015594     1.427984    -0.286851     1.756088    -1.025383     1.622550    -3.475932    -1.702997     2.343719    -2.012211    -1.048045     1.382273    -1.467791    -1.351242     1.070766    -1.283500     2.559362     0.137688     1.402684     0.655610    -2.118838     0.033906    -0.210811     1.321993     0.118246     1.371776     0.809948    -0.978520    -1.051137     0.577835     2.810379     0.498161    -3.036921     0.340413    -0.778461    -1.466260    -1.161644    -1.223098     1.230171    -1.226631     0.279834     1.720348     0.474664    -0.191626     1.802808    -4.035394     3.613660    -3.320699     0.826717     0.014682     0.981323    -0.837793     0.045233     0.697513    -0.223026     0.326491     0.296503    -1.644397    -0.388292    -2.384490     1.434985     1.032958     3.375953     0.881780    -1.799580     1.898983     0.900736    -0.321894     0.404151    -1.918021     2.341656     2.395968     3.805521    -0.890849     2.607048    -0.932963     2.591451     1.421610     0.609424     3.272326     1.865961    -1.468430    -2.770075    -1.309157     0.372631     1.435257    -2.120197     1.448251    -2.754643     3.729774     0.504371    -2.443010     0.569524     1.679494     2.749937    -2.371355     0.508652     4.044718     1.400618     1.227395     0.405294    -0.628706     0.533773     2.880437     0.305382    -1.360277    -2.479524     0.888923    -5.358342    -3.071175     6.177661     0.869865     1.097832     1.156678     0.577213    -3.499368    -3.024894    -4.835901    -0.140291     0.242417     2.144735     0.091706    -0.476409     0.714751     2.252743    -1.307758    -1.422675    -0.510926    -2.747267    -1.447479     1.042906    -4.001079     0.685781    -2.520673    -4.211022    -0.990998    -1.154237     0.278783     4.643257    -4.522908     2.165574    -0.266415    -2.147727    -1.325487    -0.662625    -6.281172     1.380781     5.587247    -1.132735    -1.004349     0.978625    -2.904745     0.479403    -1.013724    -1.369251     0.104316     2.575750     0.654499     2.151471    -4.021768    -4.367715    -0.225961     0.459787    -0.178591     0.984569    -0.656900     2.850449     1.523272     1.334139     5.324281     3.410088    -1.433504    -0.929854    -0.264858    -0.865344     3.108275    -0.683536     2.058574    -4.347991    -7.527321    -2.557908     0.125494    -0.677024    -0.827582    -0.074999     3.316815    -0.234175     1.315702    -1.540344    -0.737701    -0.486700    -1.266904    -0.031023     6.270941    -0.154236     2.164811     1.253764     0.380156    -1.400380     0.419638    -0.182679    -0.924882    -4.899808    -0.742679    -0.379199     0.098339     3.240011    -2.094844    -0.624219    -1.281658    -1.479844     4.048057    -0.443715    -0.780575    -1.883344    -0.543595     2.019834    -0.602116     2.820888    -1.499038    -0.431839     1.867416    -0.700523    -1.488264     0.763436     0.920378     0.721878    -2.457456     0.415066     8.592320    -5.837131     3.274867     2.823457    -7.776843     0.746822    -0.657196     0.147848    -0.941369    -1.355394     1.214744    -0.602588    -1.121892    -0.854658     0.604507     0.423648     0.297739     0.117969     0.230328     1.638419    -0.669531     1.801995     0.897464    -3.181569    -0.858925     0.036215     0.462611     5.908915    -2.966511    -0.111778     2.236129    -1.061261     0.491803    -2.119412     0.614687    -3.551824    -0.550860    -1.786325     1.120128     0.193014    -0.339252    -0.273464     0.621989     1.038447     4.200955     3.736742    -1.286852     1.169920    -0.465966    -0.194252    -1.642344     0.665474    -1.050354     0.907796    -0.307414     0.207051    -0.262232     0.963289    -1.664289     0.003807    -0.502061    -0.532449     1.591414     1.022974     0.315177     0.605636    -1.116299     0.137791    -2.256541     4.355554     7.404468     1.612822    -0.269479     0.099518    -0.020963     0.058965    -0.124009     0.792621     0.060997     0.337525     0.389783     0.760722     0.146756    -0.106300     0.093665    -0.339054     1.335441    -6.229558    -0.287687    -1.110793     0.349508     0.455016    -0.276785    -0.575747    -0.282045     0.497340     0.405553     0.006094     1.191504     1.736867     2.057378    -2.201494    -0.933466    -0.223120     0.225878    -0.635625    -0.625155    -1.066567    -2.243483     7.050482     1.329767    -2.574655     1.312736     0.209904     2.973509    -1.681570    -0.078481    -1.148232    -1.100239     0.708554     0.029002     0.358436     0.009512     1.434978     0.142733     0.221924     0.823570    -0.178883    -1.542070    -0.566456    -0.989770     0.937162     0.210289    -1.414004     0.342885     0.161740    -0.481520     0.372740     0.825279    -0.265142    -0.963853    -0.414089     1.859319    -0.037875    -0.025498    -0.136860    -2.165094    -6.516847     1.711323    -2.043980    -0.540827     0.418433    -0.100642     0.232769    -2.798772     0.010034    -1.149817    -1.971355    -0.059206     0.021692     0.189874    -0.418582     0.691230    -0.515209     0.026006    -0.360106     0.617020     1.477457    -1.541413     3.187875     0.952635     0.871401    -0.282388     0.081773     0.169823    -0.732425     0.457386     0.182433     0.470257    -0.107556     0.759199     0.271386    -1.669385     2.132232     1.404968    -0.641591     0.578012     0.967365     0.748977    -2.456451    -0.803346    -0.931531    -5.261160    -3.658329    -0.025122     0.257827     0.500405     0.628438     0.314071    -0.840557     0.170732    -0.855368     1.583384     0.253828     0.015985    -0.130019     0.256313     0.179188     0.741851     0.048716     0.654708    -0.547495     1.146863    -0.896763     0.703335     0.771485     0.952499     0.962754 
   -0.820879     0.548029    -0.645199     0.044466     1.210765     1.913943     0.906864    -1.059174     1.700956     0.728524    -0.351789     1.708825     1.522472     0.469195     0.310129    -1.804031     0.990189     0.225612    -0.734548     2.178223    -0.640129    -6.458246     4.200706    -5.574412     6.591101     7.383576    -3.082705    -0.533396     0.074268    -0.510088     2.529370    -3.742098     4.736086    -0.236701     1.326831    -0.859870    -0.845064    -1.205934    -1.616224     0.865544     0.581674    -1.027934    -0.128970    -0.421283    -0.101469     0.088876    -0.304978    -0.473646    -0.949923     0.215252     1.364570     1.760750     0.432086     0.677889     0.337721     0.148925    -0.973628    -0.050371     0.067863    -1.915300    -3.723286     2.415688    -5.905492     0.484144    -0.057624     0.659334     0.131681     0.155658     0.651983     2.394235     1.772795    -2.330502     1.305917     0.630914    -2.112318    -1.078874    -1.082366    -0.047928    -1.281467     0.782066     0.349748    -0.654707     1.059848     0.526521    -0.233137     1.559936    -0.617197     0.653735    -0.436542     0.337842     0.566742    -0.446925     1.141856     1.793252    -1.396801     0.066117     0.131439     1.898929     1.405980     0.026362    -1.193081    -1.769969    -0.275332     0.333930    -2.019569     0.753166     0.662232    -0.576089     0.971230     0.193481     0.377198     0.687315    -0.538875     0.185692     0.644905    -0.507511    -1.200590    -1.049113    -2.280988     2.288097    -6.074681     3.131396    -1.636308     3.893949     0.353354    -1.071563    -1.114234     1.867068    -0.718796     0.296445    -0.560212    -1.445048     0.360937    -1.324821    -0.049701     0.203025    -1.431261    -1.315645    -1.588927    -0.474436    -0.380738     7.199072    -4.068821     5.823293    -6.368057    -8.896151     3.502773     0.447492    -3.260538     0.004684    -2.371807    -1.750314    -0.718802     3.228978     1.194652     4.943349    -2.126459    -0.857062     3.622191    -1.247081    -1.175787    -0.188063     0.989921    -0.590850     1.355012    -1.939758    -1.352110     2.093308    -0.402388     1.429465     0.873864     0.956732     0.488802    -0.019203     0.531617    -0.034416    -2.276542    -0.122086    -0.893626    -0.272963     2.096816     4.195634     3.014926    -0.118866    -2.042808    -3.300602    -0.018665     3.416281     1.022859     2.314994    -2.743336    -2.864642     1.984443     1.655072     1.011857    -0.855202    -0.532380     0.337527    -0.015685    -0.861285    -2.233059     0.112464    -0.319617    -0.471756    -0.861172     0.843636     1.041615    -0.349414    -1.784203    -0.793124    -0.808147    -1.077443    -0.539132    -1.644135     0.188980     0.120378     1.814970     0.555417     4.455281     0.587438     0.291851    -3.099643     4.610830     0.895918    -4.922467     1.764052     2.833457     0.959164    -3.863881     1.332361     0.118164     0.747534     3.925935    -0.688057    -1.594570     0.168202     0.472349    -2.049462     2.073781    -0.937282     0.382742    -2.048395     2.802419     0.160596     1.776464     1.864319     1.089418     2.243107     2.383754    -0.306249    -1.676425    -0.875674    -0.292695    -0.609196     0.031661     0.226178    -0.684725     0.713224    -0.745642    -0.486388     3.222469    -0.458948     2.202726     1.816444     0.780253    -0.977892    -0.657328    -2.513670    -1.612925    -2.938806     2.359711     0.880842    -2.374626    -0.130459    -1.410703     0.050406     9.179006     4.951165     2.395414    -2.637480    -0.994467    -0.592808    -2.321796    -0.729173    -1.587152    -0.297666     0.758356     2.799085     0.812366    -3.122460    -1.231927    -1.509955    -1.209771     0.037523     0.150542     1.362984     0.168480    -0.780872     0.993646     0.428779     0.229838    -0.069458    -0.026564     0.293904     0.538136     0.296816     0.197286     0.082799    -0.456803    -0.059236     0.988812     1.518007     0.082967     0.169844     0.189162    -0.650766     0.115262     0.106784     0.608040     0.280642     0.671582     0.320482     0.467567     0.400396     0.586890    -0.208370     0.614649     0.072661     0.309399    -0.167186     0.878386     0.515595    -0.166732     1.477254    -0.400261    -0.191432     0.536355    -1.312686    -2.546483     0.008568     0.517131    -0.436124    -2.105546     0.658940    -1.571604    -0.748864    -0.961656     3.459392    -0.207144    -1.908514     0.080993    -0.877988    -0.238190    -0.314552     0.729170    -2.161567    -0.251657    -1.391170    -1.581733     0.932429     0.060399    -0.523318    -0.216024    -1.544673     0.826876    -0.972671    -0.476809    -1.432165    -0.762847     1.252359    -0.022269    -0.245476     0.030575    -1.350362    -0.271769     0.376296    -0.454232     0.858431    -0.615459     1.732576     0.006898     0.054482     3.532747    -1.713794     0.544370    -0.239075     0.685813     0.517393     0.461893     0.153305     0.251166     0.207833     0.169468    -0.534819     0.130420     0.504421    -0.948440    -0.077967    -1.019713     2.166714     0.217829    -2.301824    -1.478245     0.286087    -0.914160     0.747163    -1.800635    -1.763732    -0.380008     0.414037    -0.127383    -0.022274     0.538611     0.420231     0.839211     0.987794     0.320405    -2.571505    -0.438346     1.356334    -0.209813     0.431181    -1.389157    -0.548863     0.748429     2.128263     0.292495     0.833594     0.420140    -0.099559     0.608570    -0.409741    -0.297428     0.193105     0.173578     1.631817     0.123886     2.501247    -8.406450    -4.301180    -1.773283    -0.379587    -0.195375    -0.391721     1.867807    -0.656364    -0.358891     0.749524     1.554635     0.793311     1.268032    -2.300307    -1.134919    -1.503735     1.568912     2.254270     0.756045    -1.248358    -0.891497     0.725412     0.672389     0.418116    -0.842233     0.971003     0.236255    -4.206781    -1.848510     2.235021    -0.254486    -0.200076     0.801664     2.265047    -2.132391    -1.604278     1.077262     0.546377     2.166049     0.516470    -1.614548     1.475077     1.731056    -0.491030    -0.932554    -1.195197    -2.747614    -2.937174 
   -0.546045     0.113412     0.166125     0.418079    -0.228307     1.256050     1.398259    -0.222780     0.626344    -1.351426     0.281028     1.410013     0.759463    -3.205428    -3.031114     0.291121     0.270746    -0.167874     0.413602     0.820823    -0.774364   -16.403905     8.235986   -13.135889    -0.733561    -0.314529    -0.207040    -0.828224    -0.895168    -0.521820    -0.530772     1.064339    -1.001994     1.441731     0.136248    -0.298513    -0.124574    -1.185924    -2.047160   -14.046819    -8.254302    11.708315    -0.321290    -0.141571     0.606464    -0.927230     1.567455    -0.871224     0.047075    -1.320613    -1.625802     0.942512    -0.826146    -0.868954     2.798703     0.661515     1.829889    -3.158443    -0.278243     1.407104    -0.057548    -0.927615     1.510058    -0.266008    -0.256333     0.233411     0.963778    -0.346369    -1.185843    -1.586845     1.175422    -0.452766    -1.600121     1.437217    -1.126221    -1.820902     2.010584    -3.923679    -1.421177     0.643758    -0.372431     0.834393     1.710324    -1.511860    -1.078316    -0.049865    -0.299884    -7.983528     3.694032    -6.625243     2.548173    -5.309889     5.341061    -0.440580     0.831996     0.444831     0.345706    -1.339818    -0.729458     0.574966     1.972375     1.888265    -0.218533     1.381190     2.219397     0.685745     0.942922    -0.142929     0.779288    -0.304141     0.289952     0.230240     0.187205    -0.872179     0.493287     1.120138     0.093696    -0.760247     1.567434     1.357171     0.015297     0.193601     1.512035    -0.876750    -1.373586    -0.078118    -2.112990     1.903455    -1.172932    15.684117     9.112274   -11.292066    -1.005397    -0.773434     0.954779     2.112248    -0.890047     0.674036    -2.268070     2.724840     3.888447    17.353657   -10.710385    12.955516     0.253567     0.818158    -3.849362     1.397561     2.973785     1.659694    -5.374555     5.284575    -3.715216     3.257456     0.118815    -4.624667    -0.955872    -1.985847    -1.369265     1.027152    -1.367683     1.024046     0.728140    -1.486371     2.005805     0.772151    -2.124885     3.093136    -0.233310    -0.704094     1.389908     1.565713    -1.974014    -1.002616     9.426423    -4.201989     6.221608    -0.380995    -1.657601     0.910223    -1.911795     1.064254    -0.649029     0.267097    -8.645162    -0.062008    -0.252981     1.681409     1.093142     0.239665     1.134724    -0.932119    -5.280207    -1.393906    -3.029221    -7.689921     0.361135     5.442314    -0.368956    -1.459174    -2.206102     4.195588    -1.642606     1.401424    -1.242291     2.851463    -1.717664     4.266535    -4.727948    -1.685237    -1.379310     0.425697    -0.659279    -1.286800    -5.335487     3.599384     0.547572    -0.449468    -0.190732     1.776643     1.620711    -7.613500    -0.506737     1.451370     2.170307     0.695516    -0.187055     1.649333     0.702529    -1.343085    -1.012582     0.866676    -1.159388    -0.096352    -0.525580    -0.234732     2.227256    -2.772368     0.597106    -0.559326     0.586624     1.566924    -0.337768    -0.361841    -2.292182     1.610036     2.073410    -2.389164    -1.635205     0.985178    -0.962260     1.700965     3.594363    -1.466530     0.959733     2.222088     1.907220    -1.748633     2.409178    -0.317965    -0.233765    -1.281226    -0.674004     1.812283     2.378295    -2.603528     1.285200    -0.513851    -2.011302    -0.838565     2.243132     2.961080    -5.898492     1.307135    -3.555543     1.468295    10.186130     4.972863    -0.288838     1.867444     3.116104     2.141151     1.541830     0.245725     1.230945    -0.099421     0.631823     4.242996     0.485794    -1.278543    -0.506332    -1.563439    -0.366615     0.092793    -0.017696     7.839957    -3.993591    -0.166944    -1.358984     0.644876     0.492486     5.285683    -3.531118     1.456092     0.126348     0.002281     5.982061    -0.070445    -5.469759    -0.278426     0.491658     2.023742     0.715589     0.759623     0.268252    -0.659477     0.268984     1.162477    -3.089894     1.261451    -2.479165    -1.893719     0.461039    -0.336073    -0.848937    -0.738134     1.060399     0.334276    -1.056801     1.036792     0.822599    -0.052400     0.232507     0.865227    -0.121093    -0.022054    -0.395865     0.394362     0.302478     0.236687    -0.153742     0.309083    -0.361000     0.184966     0.095027    -1.982837    -1.283653     6.908938     0.776710     3.168551     0.205184    -0.272449     0.230245    -0.798742    -0.356622     1.535690    -0.120515    -0.350351    -0.439216     0.064649     0.631659    -0.163140    -2.002706     4.347434    -2.383136     2.824471    -0.164244    -0.077220    -0.124824    -0.159979     0.387290     0.088886     0.411586     1.642629     0.461534    -0.354926    -1.978650     5.543994    -1.322422     2.225875    -0.778363    -0.269023    -1.523046     0.655869    -0.256079    -1.101964    -1.079504    -1.682100    -0.145153    -0.320728    -1.123288     1.743530    -0.214785     0.915569     0.928649    -1.747066    -1.322267    -0.561513     0.716574    -0.957624     0.021943     0.765644    -1.304067     0.201047    -0.440964     0.172822    -0.302075    -0.110341    -0.363573     0.007218    -0.151205     0.212806    -0.019927    -0.043052     0.208721     0.763873     0.311814    -1.627154    -0.948054     0.734956    -0.398609     1.226413    -1.995101     0.311880    -1.303267    -2.557956    -0.019724     0.937092     0.513121    -1.074653     2.170211    -1.403079    -2.398915     2.100462    -1.006312     0.307917     0.446130     0.340342    -8.531379    -4.264272    -1.358402    -1.426075    -0.641160     1.352761    -2.526633    -0.768276    -1.191352     0.567155    -2.175712    -0.917653     1.851311    -1.143561    -1.128977    -0.199670     0.138612     0.089980     0.744918    -1.682817     0.451300     0.178091     2.455437     1.176351    -4.427277     1.892714     0.246727     0.337132     0.244809     0.346858    -0.675114    -0.326783    -0.498604    -0.902998     0.884401     0.165089     0.026135     0.479201     0.916533     0.537828     0.052868    -0.037709     2.056766    -0.432248     0.233424     0.113288     1.864843     1.601088 